/*--------------------------------*- C++ -*----------------------------------*\
  =========                 |
  \\      /  F ield         | OpenFOAM: The Open Source CFD Toolbox
   \\    /   O peration     | Website:  https://openfoam.org
    \\  /    A nd           | Version:  9
     \\/     M anipulation  |
\*---------------------------------------------------------------------------*/
FoamFile
{
    format      ascii;
    class       volScalarField;
    location    "10";
    object      alpha.gas;
}
// * * * * * * * * * * * * * * * * * * * * * * * * * * * * * * * * * * * * * //

dimensions      [0 0 0 0 0 0 0];

internalField   nonuniform List<scalar> 
2215
(
1
1
1
1
1
1
1
1
1
1
1
1
1
1
1
1
1
1
1
1
1
1
1
1
1
1
1
1
1
1
1
1
1
1
1
1
1
1
1
1
1
1
1
1
1
1
1
1
1
1
1
1
1
1
1
1
1
1
1
1
1
1
1
1
1
1
1
1
1
1
1
1
1
1
1
1
1
1
1
1
1
1
1
1
1
1
1
1
1
1
1
1
1
1
1
1
1
1
1
1
1
1
1
1
1
1
1
1
1
1
1
1
1
1
1
1
1
1
1
1
1
1
1
1
1
1
1
1
1
1
1
1
1
1
1
1
1
1
1
1
1
1
1
1
1
1
1
1
1
1
1
1
1
1
1
1
1
1
1
1
1
1
1
1
1
1
1
1
1
1
1
1
1
1
1
1
1
1
1
1
1
1
1
1
1
1
1
1
1
1
1
1
1
1
1
1
1
1
1
1
1
1
1
1
1
1
1
1
1
1
1
1
1
1
1
1
1
1
1
1
1
1
1
1
1
1
1
1
1
1
1
1
1
1
1
1
1
1
1
1
1
1
1
1
1
1
1
1
1
1
1
1
1
1
1
1
1
1
1
1
1
1
1
1
1
1
1
1
1
1
1
1
1
1
1
1
1
1
1
1
1
1
1
1
1
1
1
1
1
1
1
1
1
1
1
1
1
1
1
1
1
1
1
1
1
1
1
1
1
1
1
1
1
1
1
1
1
1
1
1
1
1
1
1
1
1
1
1
1
1
1
1
1
1
1
1
1
1
1
1
1
1
1
1
1
1
1
1
1
1
1
1
1
1
1
1
1
1
1
1
1
1
1
1
1
1
1
1
1
1
1
1
1
1
1
1
1
1
1
1
1
1
1
1
1
1
1
1
1
1
1
1
1
1
1
1
1
1
1
1
1
1
1
1
1
1
1
1
1
1
1
1
1
1
1
1
1
1
1
1
1
1
1
1
1
1
1
1
1
1
1
1
1
1
1
1
1
1
1
1
1
1
1
1
1
1
1
1
1
1
1
1
1
1
1
1
1
1
1
1
1
1
1
1
1
1
1
1
1
1
1
1
1
1
1
1
1
1
1
1
1
1
1
1
1
1
1
1
1
1
1
1
1
1
1
1
1
1
1
1
1
1
1
1
1
1
1
1
1
1
1
1
1
1
1
1
1
1
1
1
1
1
1
1
1
1
1
1
1
1
1
1
1
1
1
1
1
1
1
1
1
1
1
1
1
1
1
1
1
1
1
1
1
1
1
1
1
1
1
1
1
1
1
1
1
1
1
1
1
1
1
1
1
1
1
1
1
1
1
0.9999999999
0.9999999995
0.9999999986
0.9999999974
0.9999999962
0.9999999956
0.9999999966
0.9999999984
0.9999999995
0.9999999999
1
1
1
1
1
1
1
1
1
1
1
0.9999999999
0.9999999992
0.999999997
0.9999999932
0.999999989
0.9999999863
0.999999985
0.9999999847
0.999999987
0.9999999918
0.9999999971
0.9999999996
1
1
1
1
1
1
1
1
1
1
0.9999999995
0.9999999973
0.9999999923
0.9999999866
0.999999983
0.9999999806
0.9999999787
0.9999999775
0.999999977
0.9999999786
0.9999999838
0.9999999937
0.9999999994
1
1
1
1
1
1
1
1
0.9999999999
0.9999999988
0.9999999944
0.9999999876
0.9999999828
0.9999999801
0.9999999783
0.9999999767
0.9999999748
0.9999999731
0.999999972
0.9999999721
0.9999999782
0.9999999919
0.9999999998
1
1
1
1
1
1
1
0.9999999998
0.9999999978
0.9999999914
0.9999999846
0.9999999808
0.9999999789
0.9999999776
0.9999999764
0.9999999745
0.9999999727
0.9999999702
0.9999999684
0.9999999673
0.9999999748
0.9999999942
1
1
1
1
1
1
1
0.9999999997
0.9999999968
0.9999999896
0.9999999829
0.9999999799
0.9999999792
0.9999999799
0.9999999813
0.9999999822
0.9999999802
0.9999999753
0.9999999681
0.9999999643
0.9999999625
0.9999999753
0.9999999999
1
1
1
1
1
1
0.9999999997
0.9999999966
0.9999999884
0.9999999819
0.9999999798
0.9999999797
0.9999999822
0.999999985
0.9999999862
0.9999999864
0.999999984
0.9999999773
0.9999999655
0.999999959
0.9999999577
0.9999999904
1
1
1
1
1
1
0.9999999997
0.9999999969
0.9999999888
0.9999999817
0.9999999793
0.9999999798
0.9999999838
0.9999999866
0.9999999873
0.9999999874
0.9999999874
0.9999999856
0.9999999764
0.9999999587
0.9999999497
0.9999999632
1
1
1
1
1
1
0.9999999998
0.9999999975
0.9999999901
0.999999982
0.9999999791
0.9999999795
0.9999999835
0.9999999867
0.9999999874
0.9999999875
0.9999999876
0.9999999876
0.9999999841
0.9999999705
0.9999999485
0.9999999449
1
1
1
1
1
1
0.9999999999
0.9999999983
0.9999999922
0.9999999834
0.9999999791
0.9999999788
0.9999999822
0.9999999862
0.9999999873
0.9999999874
0.9999999876
0.9999999877
0.9999999864
0.9999999792
0.9999999571
0.9999999367
1
1
1
1
1
1
0.9999999999
0.999999999
0.9999999947
0.9999999863
0.9999999794
0.9999999787
0.9999999805
0.9999999847
0.999999987
0.9999999871
0.9999999872
0.9999999877
0.9999999868
0.9999999827
0.9999999669
0.9999999334
1
1
1
1
1
1
1
0.9999999995
0.9999999968
0.9999999902
0.9999999813
0.9999999787
0.999999979
0.9999999821
0.9999999858
0.9999999868
0.9999999868
0.9999999877
0.9999999863
0.9999999834
0.999999974
0.9999999325
1
1
1
1
1
1
1
0.9999999997
0.9999999983
0.9999999938
0.9999999855
0.9999999791
0.9999999787
0.99999998
0.9999999835
0.9999999859
0.9999999863
0.9999999872
0.9999999856
0.9999999834
0.9999999772
0.9999999337
0.9999999969
1
1
1
1
1
1
0.9999999999
0.9999999992
0.9999999966
0.9999999902
0.9999999819
0.9999999788
0.9999999789
0.9999999811
0.9999999841
0.9999999856
0.9999999858
0.9999999846
0.9999999822
0.9999999774
0.999999942
0.9999999733
1
1
1
1
1
1
1
0.9999999997
0.9999999982
0.9999999936
0.9999999859
0.999999979
0.999999978
0.9999999784
0.9999999808
0.999999983
0.9999999841
0.9999999832
0.9999999808
0.9999999743
0.9999999456
0.9999999513
1
1
1
1
1
1
1
0.9999999999
0.9999999994
0.999999997
0.9999999905
0.9999999834
0.9999999807
0.9999999792
0.9999999797
0.999999981
0.9999999823
0.9999999815
0.9999999779
0.9999999685
0.9999999459
0.999999934
0.9988350547
0.8723038159
0.6531176307
0.7074217699
0.7819799602
0.9107969549
0.975726615
0.99551387
0.9994164299
0.9999352402
0.9999935772
0.9999991832
0.9999998749
0.9999999679
0.9999999787
0.9999999798
0.9999999805
0.9999999784
0.99999997
0.9999999536
0.9999999287
0.999999918
0.57715703
0.4283637085
0.4072742504
0.4123647839
0.4487344323
0.4821459444
0.6870422612
0.8955745678
0.9810322564
0.9980192901
0.9998060409
0.9999787245
0.9999976041
0.9999997283
0.9999999574
0.999999978
0.9999999747
0.999999964
0.9999999416
0.9999999105
0.9999998961
0.9999999005
0.3461649271
0.3367226859
0.4503571936
0.4511129735
0.4391993168
0.388598529
0.392560623
0.5383632629
0.8100881544
0.9609304681
0.9958746738
0.9995929341
0.9999535503
0.9999954505
0.9999995489
0.9999998961
0.9999998855
0.9999998627
0.9999998266
0.9999997829
0.9999998242
0.9999998794
0.3559955439
0.471729645
0.5532741606
0.5686602093
0.5232225959
0.5390517335
0.5165301305
0.4888959373
0.5889619883
0.8146129319
0.95883002
0.9952049426
0.9995065584
0.9999417891
0.9999947066
0.9999984805
0.9999989339
0.9999991162
0.9999992182
0.9999993179
0.9999995811
0.9999998093
0.5785805511
0.6140249552
0.5913190999
0.5090581791
0.4051677201
0.4075914304
0.478974554
0.4790483411
0.5129807642
0.6511783433
0.8579201824
0.9716200693
0.9965837662
0.9996200483
0.9999436929
0.9999722772
0.9999833152
0.9999898631
0.9999938923
0.999996561
0.9999989402
0.999999185
0.6585312664
0.6186636702
0.4636706808
0.2463462931
0.1181609975
0.05582460349
0.1547812149
0.3757418643
0.4504258252
0.5547343919
0.7439700251
0.9150798899
0.984868839
0.9982350982
0.9994237489
0.9996353644
0.9997654059
0.9998759135
0.9999588925
0.9999902551
0.9999979071
0.9999995666
0.6790304217
0.5553940657
0.2524707677
0.07277850857
0.006644404319
0.002334036578
0.0007390703874
0.1887077445
0.3772464415
0.497508906
0.642755575
0.829954169
0.9514301171
0.9916308566
0.9907463874
0.9266229486
0.9558501387
0.9858251806
0.9944962691
0.9989916763
0.9979483537
0.9989661636
0.6796063302
0.4557306851
0.1435172956
0.01730729192
0.0009180394833
0.0001426067116
9.52898836e-06
0.016559303
0.2516255014
0.4284791793
0.5723336664
0.7231303751
0.8799500596
0.9553070512
0.6001329332
0.125879018
0.08327205835
0.2022833573
0.5251656638
0.3486152832
0.1845814883
0.2106709169
0.6776769059
0.3906079974
0.08015214456
0.005738925217
0.0003026439959
1.263301805e-05
1.146628764e-06
5.950795328e-05
0.07025627732
0.315250266
0.467631557
0.626235412
0.7776707262
0.6873987226
0.06532568822
1.801533942e-09
1.394362931e-11
4.35817161e-13
1.308241454e-12
4.618055211e-12
6.701350825e-13
1.513399402e-20
0.6673096276
0.3169951465
0.03785753652
0.002192067328
0.0001107073268
5.456005711e-06
2.884537198e-07
1.538654879e-06
0.0003876027369
0.1129371409
0.3667844532
0.5117348378
0.6195804055
0.2930958547
7.228743398e-05
2.264653697e-09
2.230572245e-11
5.734178111e-16
4.652489553e-17
1.735969457e-18
1.346635171e-20
1.005754982e-18
0.6622074044
0.2357384406
0.02302437632
0.001049995343
4.840078888e-05
2.113001348e-06
1.12658681e-07
1.081063898e-08
9.003189812e-07
0.0005091694797
0.1978622683
0.4119570572
0.5727637431
0.10209452
4.008234592e-08
1.235583004e-09
1.121441353e-11
1.489171619e-16
2.588759424e-20
1.315098078e-18
1.880628807e-19
6.14944025e-19
0.6622537278
0.2048294993
0.01403172828
0.0005399291928
1.998708328e-05
7.100741219e-07
2.817269167e-08
1.265843294e-09
6.724415509e-08
8.832089887e-06
0.001049436422
0.2774080251
0.2372180629
0.005383526149
4.800116057e-08
1.218403451e-09
6.338469124e-12
1.624753993e-16
4.207421463e-19
9.704912192e-19
4.960823536e-19
1.116242195e-18
0.660776999
0.1788892352
0.008676942884
0.0002284119027
6.075876545e-06
1.641584099e-07
4.908647118e-09
1.099969029e-10
4.388998676e-09
2.067261137e-06
2.252624854e-06
0.001953370099
0.0002190147389
1.349705041e-05
7.72591415e-08
4.224368723e-10
4.997145245e-13
4.673514578e-17
5.835522169e-19
7.323510703e-19
7.572060277e-19
1.427443304e-18
0.6590634309
0.149533813
0.004811138968
5.295404137e-05
8.328266786e-07
2.024593738e-08
5.301416729e-10
8.045466803e-12
1.44602679e-11
2.39447931e-09
6.11195565e-09
3.30832359e-07
5.526522388e-08
1.184430282e-09
5.39225117e-10
3.429942433e-11
3.267447291e-14
8.750544896e-18
6.074813907e-19
6.569937894e-19
8.707878283e-19
1.400226381e-18
0.6556253311
0.127357155
0.002933815351
5.9142755e-06
2.149036687e-08
2.256129481e-10
4.574752971e-12
1.552006967e-13
8.501145333e-14
2.895307426e-12
7.946193584e-12
3.158368103e-13
1.259006356e-11
1.165700196e-12
2.838286242e-14
3.045456781e-15
1.797221406e-16
8.074246553e-19
6.11673491e-19
6.50202328e-19
7.935576934e-19
7.150976705e-19
0.6538241509
0.1139046613
0.001996010779
1.695268184e-06
6.181672504e-11
1.587484088e-15
2.306394149e-17
2.423944627e-16
2.154937774e-14
2.829895906e-13
8.052983659e-13
1.352679043e-13
3.258260416e-14
1.93007343e-15
7.788450279e-17
4.855331394e-18
1.540770063e-19
1.923718183e-18
6.772953198e-19
6.940658962e-19
7.203822691e-19
5.005932192e-19
0.6540667583
0.0997555364
0.001277240262
5.21155644e-07
8.002425233e-12
1.180959703e-16
1.957182642e-17
1.072031912e-16
1.389229538e-15
8.806444898e-15
1.559037265e-14
2.003827056e-14
5.370697923e-16
8.044277653e-17
2.74253917e-17
9.453397516e-18
6.592921057e-19
1.493811759e-18
7.91506329e-19
7.911860344e-19
7.248681436e-19
1.864999405e-19
0.6511800092
0.09150215956
0.0009575684301
1.212087675e-07
8.028341708e-13
2.100702052e-17
1.690407337e-17
2.02753173e-17
2.783622362e-17
3.355150259e-17
1.047744929e-16
1.575995899e-16
6.449457915e-17
4.704197404e-17
2.439910404e-17
1.151832507e-17
1.648411406e-18
1.120147586e-18
9.112057989e-19
8.920217315e-19
7.240680372e-19
4.379554806e-20
0.6527676584
0.08943027501
0.000847469693
8.99114415e-09
1.550229885e-15
1.83784207e-17
1.664893667e-17
1.824019771e-17
1.708472732e-17
4.142380024e-17
8.145416151e-17
1.807390554e-17
4.846819072e-17
4.769618141e-17
2.537315381e-17
9.30919822e-18
2.424279811e-18
1.04219585e-18
9.927726511e-19
9.128677713e-19
5.559326207e-19
3.311362591e-20
0.6606050023
0.08891318618
0.0008835061101
1.51872076e-12
9.198992168e-16
1.004094672e-17
1.927692638e-17
2.840858885e-17
3.806207238e-17
3.482814646e-17
4.569757984e-17
3.440833763e-17
3.969670726e-17
3.350596347e-17
1.821563068e-17
6.942285008e-18
2.514147789e-18
1.085969623e-18
9.989373911e-19
7.971445757e-19
2.598419036e-19
1.340681096e-20
0.6609532599
0.0928662641
0.0009850755085
8.547077633e-13
2.584100549e-16
1.373489788e-17
1.550220545e-17
2.117453165e-17
3.118928518e-17
3.805445093e-17
3.969888812e-17
3.889246843e-17
3.888493312e-17
2.713084092e-17
1.275484763e-17
5.960966888e-18
2.119655869e-18
1.121360778e-18
9.245661162e-19
5.89223613e-19
2.174942676e-19
1.66202109e-21
0.6628206696
0.09845100395
0.001103606479
1.550847797e-13
1.373003083e-16
1.799601175e-17
1.550352762e-17
2.202042753e-17
5.052401824e-17
4.214040107e-17
4.172203249e-17
4.099886375e-17
3.817091288e-17
2.462737817e-17
9.375277656e-18
5.323088714e-18
1.648888034e-18
1.07872646e-18
7.651083122e-19
3.114695807e-19
2.049437864e-21
3.160873085e-20
0.6732893584
0.1042793466
0.00126198937
9.052498913e-14
2.923740209e-17
5.79386179e-18
1.239546134e-17
2.515567393e-17
2.12190177e-17
4.264429197e-17
4.374663756e-17
4.826515151e-17
6.553065242e-17
2.041358525e-17
7.006272147e-18
4.148710557e-18
1.295009445e-18
9.083176111e-19
4.985466525e-19
2.171030116e-19
2.483475139e-21
1.164096284e-20
0.6809986708
0.1108233747
0.001438962193
1.023064568e-14
1.328451881e-17
7.466639438e-18
9.809937681e-18
1.635547535e-17
3.509575212e-17
8.564289362e-17
6.86310543e-17
2.912202543e-17
2.560061776e-18
1.457665217e-17
5.076046625e-18
2.762880793e-18
1.02271521e-18
6.383725877e-19
2.231367034e-19
1.746191933e-22
1.148695932e-20
9.777239474e-21
0.6854254774
0.1175152018
0.001585102995
5.471312132e-15
8.083070752e-18
5.242101118e-18
1.185815409e-17
1.649600916e-17
1.428784201e-17
1.223090482e-18
4.519370703e-18
2.212184468e-17
9.773921091e-18
1.001526605e-17
3.659165259e-18
1.730822691e-18
7.494126027e-19
3.613381668e-19
1.409976687e-19
1.31787424e-20
1.056296841e-19
9.351987745e-20
0.6909182788
0.1228286866
0.001680857572
6.109782733e-16
2.375043418e-18
4.257475606e-18
7.299402878e-18
1.70635264e-17
1.417163127e-17
9.656257184e-18
1.233534622e-17
1.725533139e-17
1.064826307e-17
6.830005104e-18
2.653718044e-18
1.089661718e-18
4.513759764e-19
2.459278393e-19
1.164996159e-20
1.071891934e-19
1.156158307e-19
1.792440588e-19
0.6950282662
0.1257346104
0.001700833911
2.25225085e-17
4.40246137e-18
8.789471202e-18
1.182835337e-17
1.696128773e-17
1.556702191e-17
1.363040863e-17
1.34879785e-17
1.237788615e-17
8.018411991e-18
4.422762041e-18
1.797604337e-18
6.496698853e-19
2.269498521e-19
2.224408394e-21
1.145112491e-19
1.042391527e-19
1.126746468e-19
9.508524805e-20
0.6972456884
0.1254694741
0.001638724686
7.060499367e-18
7.401089611e-18
1.007582584e-17
1.197260321e-17
1.506759176e-17
1.428969888e-17
1.272076268e-17
1.094595162e-17
8.306423079e-18
5.173834855e-18
2.598381556e-18
1.064685284e-18
3.107837985e-19
5.698261224e-20
8.475764686e-20
1.163047278e-19
1.024784862e-19
1.107151537e-19
1.691218208e-19
0.6984999798
0.124183705
0.001551541824
4.288007843e-18
9.658110403e-18
1.06365065e-17
1.117929761e-17
1.257761281e-17
1.171113799e-17
1.00708719e-17
7.912686273e-18
5.425400577e-18
3.151642579e-18
1.407965486e-18
5.490028064e-19
2.358436176e-19
1.456989729e-19
1.351056582e-19
1.182308638e-19
1.012364436e-19
1.094365668e-19
1.845419074e-19
0.6987538544
0.123203119
0.001527984047
1.32931268e-17
1.219402186e-17
1.111538976e-17
1.028852911e-17
1.05548521e-17
9.427903579e-18
7.758669395e-18
5.772935982e-18
3.849138731e-18
2.405014834e-18
1.339028378e-18
1.79005252e-19
3.56365409e-21
1.519876823e-19
1.397114124e-19
1.201880772e-19
9.976429983e-20
1.058268183e-19
2.00213608e-19
0.6989587063
0.1187553945
0.001509238307
1.067624262e-17
1.3849764e-17
1.178957054e-17
9.681253188e-18
9.300551761e-18
8.003894129e-18
6.366291257e-18
4.554819177e-18
2.884529017e-18
1.582511201e-18
4.628702137e-19
2.302705615e-19
1.629897152e-19
1.575687809e-19
1.44288049e-19
1.2240845e-19
9.794558896e-20
9.63546706e-20
2.144271569e-19
0.6990598322
0.1149156362
0.001497661126
9.011494468e-18
1.401720906e-17
1.267086619e-17
9.367558594e-18
8.672610481e-18
7.332459468e-18
5.751870106e-18
4.035269347e-18
2.529284431e-18
1.497641097e-18
6.926975396e-19
3.69342129e-21
1.677495983e-19
1.62951262e-19
1.490517773e-19
1.250088945e-19
9.638893785e-20
8.085672116e-20
2.15951552e-19
0.6999212827
0.1141641707
0.001510380088
1.039615542e-17
2.785275947e-17
1.360380409e-17
9.233337206e-18
8.416002752e-18
7.103349973e-18
5.562582523e-18
3.866654295e-18
2.423306348e-18
1.443441546e-18
1.077875264e-18
1.761888316e-19
1.728263275e-19
1.683911979e-19
1.539636778e-19
1.27765709e-19
9.61324237e-20
7.082498491e-20
2.060200762e-19
0.7012924406
0.1116948533
0.00154241695
1.021753084e-17
2.035858858e-17
1.435011882e-17
9.17150751e-18
8.327335533e-18
7.062847082e-18
5.529247928e-18
3.803733193e-18
2.34595938e-18
1.208828939e-18
6.772112904e-20
1.828138917e-19
1.774240486e-19
1.739373367e-19
1.588575434e-19
1.302154792e-19
9.720265003e-20
7.934499945e-20
1.919688662e-19
0.7029603787
0.1082523981
0.001561536462
9.097183788e-18
1.570106509e-17
1.475437402e-17
9.119899969e-18
8.293355443e-18
7.080108723e-18
5.533274014e-18
3.758062236e-18
2.36967224e-18
2.197478916e-18
9.475203206e-20
1.875716889e-19
1.812929015e-19
1.79415211e-19
1.636307011e-19
1.321576626e-19
9.726686211e-20
7.627867868e-20
1.769397275e-19
0.7044658107
0.1075306029
0.00158162115
6.276145425e-18
1.209433509e-17
1.468221205e-17
9.06370543e-18
8.276007279e-18
7.120302761e-18
5.558579783e-18
3.772873828e-18
2.643758607e-18
2.136503119e-18
8.821485287e-19
1.91989081e-19
1.845258904e-19
1.843890537e-19
1.68307988e-19
1.342994782e-19
9.732653169e-20
7.325731527e-20
1.614731649e-19
0.705736656
0.1048074944
0.001610538391
1.052552273e-17
1.035666322e-17
1.454064159e-17
9.020026336e-18
8.285374112e-18
7.196197904e-18
5.614691986e-18
3.84730686e-18
3.165675986e-18
1.517509358e-18
2.967555002e-19
1.959147399e-19
1.865965013e-19
1.881805342e-19
1.728271408e-19
1.375009263e-19
9.751474478e-20
7.048351167e-20
1.420718804e-19
0.7072442592
0.1013978746
0.001660710292
5.306189648e-18
1.10122092e-17
1.436844821e-17
9.033561654e-18
8.814056042e-18
1.842753167e-17
5.781890123e-18
5.030404939e-18
3.45421772e-18
2.555742071e-18
2.07480898e-19
1.989786945e-19
1.869901834e-19
1.900989269e-19
1.768458561e-19
1.419946853e-19
9.792037581e-20
6.829522633e-20
1.127997547e-19
0.7088347802
0.1014760159
0.001720637759
6.1966573e-18
3.818558779e-17
1.424350166e-17
9.130521387e-18
9.247050347e-18
1.925262173e-17
6.037360769e-18
7.093203915e-18
3.41994753e-18
2.352108985e-18
4.380571471e-20
2.00459899e-19
1.855197708e-19
1.899043524e-19
1.798157789e-19
1.469589143e-19
9.85323489e-20
6.681815142e-20
8.259103402e-20
0.7101991387
0.1015067586
0.001777638776
1.061740483e-17
1.057039464e-17
1.417202726e-17
9.341923618e-18
9.663522441e-18
1.643132133e-17
6.269616655e-18
8.301101846e-18
3.200159452e-18
1.25789553e-18
3.317265556e-19
1.992992763e-19
1.825962935e-19
1.881861321e-19
1.813468341e-19
1.510697353e-19
9.93336129e-20
6.610626425e-20
9.91058353e-20
0.7117949151
0.10289401
0.001858477221
1.024029889e-17
1.377275366e-17
1.67595946e-17
1.016734765e-17
1.751477065e-17
1.419942425e-17
6.452452734e-18
8.392318944e-18
6.415090732e-18
1.479521935e-18
2.560713297e-19
1.951769066e-19
1.792650237e-19
1.862483809e-19
1.815031942e-19
1.532470723e-19
1.003043361e-19
6.521388701e-20
8.143632472e-20
0.7138802051
0.1059340012
0.001934577411
8.904995827e-18
2.18845822e-17
1.929464405e-17
1.168990294e-17
2.238120334e-17
1.378612784e-17
6.807836736e-18
7.897419408e-18
4.847902725e-18
1.957951172e-18
2.889610486e-19
1.883677695e-19
1.769758239e-19
1.85706863e-19
1.807903218e-19
1.527110565e-19
1.012963478e-19
6.460467389e-20
5.600801665e-20
0.7162214928
0.1093420264
0.0020084864
9.084416668e-18
1.754680645e-17
1.886303672e-17
1.313820526e-17
1.706510808e-17
1.267025075e-17
1.306384367e-17
7.258469546e-18
2.693353017e-18
2.595297751e-18
1.873040929e-19
1.808591714e-19
1.770053576e-19
1.87442449e-19
1.799878105e-19
1.490685853e-19
1.018749622e-19
6.440578441e-20
5.319133514e-20
0.7192861214
0.1111501481
0.002120831363
6.667129469e-18
2.321673695e-17
2.63461589e-17
1.474301336e-17
1.260057658e-17
8.985190212e-18
8.61653619e-18
6.146312057e-18
2.631451624e-18
9.651678038e-19
3.410296756e-19
1.772788054e-19
1.799846084e-19
1.913236481e-19
1.799594946e-19
1.433885798e-19
1.01558868e-19
6.433036946e-20
6.887023919e-20
0.7225656435
0.1150326009
0.002260632019
6.935635188e-18
2.150564203e-17
1.976565812e-17
1.558440008e-17
1.058340268e-17
5.553095086e-18
1.057673364e-17
5.277980461e-18
2.727933058e-18
1.468446423e-18
6.554685877e-20
1.76308242e-19
1.851200798e-19
1.968117188e-19
1.812524651e-19
1.388403791e-19
1.00359701e-19
6.404557213e-20
7.108498866e-20
0.7265393955
0.1197730238
0.002458235304
8.020043206e-18
1.963547675e-17
1.383634401e-17
2.378415437e-17
9.566782138e-18
3.857104058e-18
5.034817074e-18
3.986845102e-18
2.700483388e-18
2.152121385e-18
2.669124582e-19
1.71594538e-19
1.906007549e-19
2.036584356e-19
1.841425957e-19
1.38277558e-19
9.860679346e-20
6.340203016e-20
7.02016996e-20
0.7311015476
0.1256915914
0.002796384833
6.112568212e-18
4.638068672e-18
3.623784543e-17
1.591308906e-17
9.008925749e-18
4.604375734e-18
7.548076283e-18
2.522918811e-18
2.68168195e-18
2.264014112e-18
9.480485708e-20
1.408636754e-19
1.950403973e-19
2.115053616e-19
1.882174829e-19
1.409791987e-19
9.692594157e-20
6.205839161e-20
5.806579263e-20
0.7358814555
0.1338659617
0.003171417125
6.554425717e-18
8.179341746e-18
1.091933776e-17
2.19059607e-17
6.931490511e-18
6.84771322e-18
1.208536246e-17
4.344337417e-18
2.705667702e-18
1.423002589e-18
1.800189838e-19
1.530452808e-19
2.044244407e-19
2.199286242e-19
1.923798656e-19
1.429071945e-19
9.483530772e-20
5.994571214e-20
3.943527131e-20
0.7423442216
0.1447406303
0.003677279767
5.091307256e-18
6.164969768e-18
1.497968682e-18
2.074778228e-18
5.134953353e-18
7.831968907e-18
9.541670987e-18
4.007493024e-18
8.681201279e-19
4.500400895e-19
4.848392465e-20
1.387268532e-19
2.11960776e-19
2.269873701e-19
1.946953395e-19
1.414495526e-19
9.141774765e-20
5.697945919e-20
3.890269611e-20
0.7526907772
0.1618563353
0.004284381574
1.10819537e-17
5.629532614e-18
3.217975362e-18
2.857181704e-18
4.837306907e-18
6.909255366e-18
4.865431586e-18
2.78572029e-18
2.405751229e-18
8.955020991e-19
1.468661843e-19
1.749731996e-19
2.25927862e-19
2.307026279e-19
1.923028307e-19
1.364336275e-19
8.631098908e-20
5.313459434e-20
4.413010772e-20
0.768187073
0.1903731194
0.005001050198
1.934842321e-19
6.849020605e-18
1.038534833e-17
5.634175962e-18
1.021569215e-17
5.132883464e-18
4.192689758e-19
2.479130709e-18
1.070044207e-18
1.211519114e-18
2.245181989e-19
1.942167237e-19
2.310608193e-19
2.2482289e-19
1.809665637e-19
1.254612617e-19
7.850692248e-20
4.832068783e-20
4.566000834e-20
0.7823034582
0.2298882364
0.005704112815
2.712306358e-19
6.79139741e-18
8.192698695e-18
6.413627646e-18
7.984893705e-18
4.573749339e-18
1.680788783e-18
4.603450608e-18
2.770435549e-18
1.489300479e-19
3.308257915e-19
2.742301101e-19
2.397855962e-19
2.048587349e-19
1.558631495e-19
1.060410728e-19
6.696396746e-20
4.238048259e-20
4.196892574e-20
0.7805140852
0.2536765373
0.005282862043
2.804950578e-18
6.892858907e-18
6.388501265e-18
1.28807462e-17
6.952442922e-18
3.397144098e-18
1.758066725e-18
5.786516252e-19
2.06659919e-19
2.901471657e-19
5.829367818e-20
1.854794656e-19
1.73884627e-19
1.458090866e-19
1.105101109e-19
7.741439737e-20
5.180780968e-20
3.538182594e-20
3.819381869e-20
0.7242090751
0.1179752963
0.0004182530723
3.906062462e-18
6.923244108e-18
5.486419101e-18
7.375748912e-18
2.747425872e-18
2.050192182e-18
6.819786343e-18
2.159114426e-18
1.093347898e-18
1.053863941e-19
1.207480719e-19
9.837708919e-20
8.03658648e-20
6.712374998e-20
5.689836509e-20
4.667897739e-20
3.615322794e-20
2.8008987e-20
3.461252449e-20
0.005438864776
6.177737287e-05
4.010512252e-19
4.304046139e-18
4.671203013e-18
2.069827675e-18
6.737498224e-19
2.165491137e-18
4.942661556e-18
3.082067958e-20
1.4334094e-19
2.431627665e-19
1.173764222e-19
8.091885551e-20
6.195333997e-20
4.850246997e-20
4.155000047e-20
3.642490762e-20
3.131729086e-20
2.592910013e-20
2.123269414e-20
3.145840183e-20
0
2.336788227e-19
3.618909521e-18
4.828570257e-18
2.496526902e-18
7.841786177e-19
4.932916711e-19
1.233485226e-18
8.232064464e-30
1.461766531e-19
1.707916517e-19
3.886953076e-19
9.221874531e-21
1.399445029e-20
1.56590759e-20
1.782875348e-20
1.825201335e-20
1.744809575e-20
1.701478976e-20
1.672696827e-20
1.342244e-20
2.712016504e-20
1.626046427e-19
8.373665716e-20
9.970254723e-21
1.062294917e-19
1.396252252e-18
7.24946509e-19
7.581029239e-19
1.283739966e-18
1.544627623e-19
1.992740094e-19
2.349104915e-19
5.243507266e-21
7.542607336e-21
1.068670592e-20
1.50253538e-20
1.74730515e-20
1.638008565e-20
1.353805095e-20
1.183577012e-20
1.195471122e-20
1.375324909e-20
8.798978398e-21
4.725277802e-19
4.60822763e-19
4.623366522e-19
4.905354474e-19
7.457128671e-19
4.889828943e-19
3.580988376e-19
1.961794763e-23
6.44414475e-20
1.097459994e-19
4.473072839e-20
1.114378563e-20
4.730694141e-21
3.161109747e-21
2.354244964e-21
1.909335888e-21
1.710169527e-21
1.974196338e-21
2.782662968e-21
4.965198493e-21
6.96337483e-21
2.937532664e-23
1
0.9978452766
0.9599578776
0.1072173102
0.07713460733
0.03290520911
2.748234455e-21
0
7.520242229e-21
1.925613467e-19
1.910538553e-19
1.906583904e-19
2.576322217e-19
3.206030396e-19
4.369161812e-19
)
;

boundaryField
{
    inlet
    {
        type            fixedValue;
        value           uniform 1;
    }
    frontandback
    {
        type            empty;
    }
    walls
    {
        type            zeroGradient;
    }
    outlet
    {
        type            inletOutlet;
        phi             phi.gas;
        inletValue      uniform 1;
        value           uniform 1;
    }
}


// ************************************************************************* //
