/*--------------------------------*- C++ -*----------------------------------*\
  =========                 |
  \\      /  F ield         | OpenFOAM: The Open Source CFD Toolbox
   \\    /   O peration     | Website:  https://openfoam.org
    \\  /    A nd           | Version:  9
     \\/     M anipulation  |
\*---------------------------------------------------------------------------*/
FoamFile
{
    format      ascii;
    class       volScalarField;
    location    "10";
    object      Ar.gas;
}
// * * * * * * * * * * * * * * * * * * * * * * * * * * * * * * * * * * * * * //

dimensions      [0 0 0 0 0 0 0];

internalField   nonuniform List<scalar> 
2215
(
0.5348527934
0.5367905325
0.54193556
0.5518074031
0.5675046567
0.5895500899
0.6179205886
0.6523295086
0.6926627422
0.7395364256
0.7947599298
0.8620852732
0.950068563
0.9803000871
0.9918092547
0.9964258091
0.9983197236
0.9991015337
0.9994085854
0.9994891989
0.9994412707
0.999335244
0.5332359899
0.5348715092
0.5398328034
0.5498643224
0.5660803013
0.5888524295
0.617910719
0.6526379618
0.6925783732
0.7377762511
0.7891834684
0.8471379782
0.9082268532
0.9494148856
0.9734221666
0.9862788509
0.9927718372
0.9959009185
0.9973081937
0.9978176841
0.9978434043
0.9976712256
0.530849077
0.5323655249
0.5374190401
0.5478650138
0.5647783133
0.5884044735
0.6182789771
0.653482729
0.6931492564
0.7369038933
0.7844362834
0.8355329444
0.8864910114
0.9281251219
0.9573127756
0.9755578585
0.9860133244
0.9915956902
0.9943395733
0.9954711625
0.9957049396
0.9955478902
0.5281290178
0.5296456267
0.5349036963
0.5458385913
0.5635053232
0.5880639519
0.6188817286
0.6547502705
0.6944132147
0.7370033414
0.7819890396
0.8284307438
0.8739589065
0.913735066
0.9444311287
0.965612846
0.9789118406
0.9866056782
0.9906669836
0.9924919129
0.9930073402
0.992910048
0.5252614495
0.5268241302
0.5323222863
0.5437726242
0.5622216307
0.5877619938
0.6196145752
0.6563003463
0.696236407
0.7381845579
0.7813270455
0.8246457812
0.8665288362
0.9040364662
0.9345279416
0.9569696454
0.9720281026
0.9813017371
0.9864850549
0.9889608292
0.9897678401
0.9897453989
0.5223130192
0.5239305315
0.5296728729
0.5416424988
0.5608798214
0.587418077
0.620353032
0.6579411111
0.6983428741
0.7400100129
0.7818720724
0.8230266366
0.8621927717
0.8975093719
0.927031028
0.949686995
0.9656347738
0.9759372153
0.9819591041
0.9849628486
0.9860187701
0.98606117
0.5192994113
0.5209652672
0.526944048
0.5394237069
0.5594303954
0.5869324743
0.6208943475
0.6594595282
0.700447457
0.7420969508
0.7831391816
0.8226776221
0.8597435716
0.8930856512
0.9213333651
0.9435892867
0.9597921549
0.9706386275
0.9771931134
0.9805588352
0.9817842753
0.9818616798
0.516217943
0.5179225922
0.5241284015
0.5370999271
0.5578355773
0.5862339024
0.6211062774
0.6605996413
0.7022578909
0.7440576367
0.7845913006
0.8229349894
0.8583454866
0.88996411
0.9168666183
0.9383886391
0.9544153185
0.965417137
0.972219229
0.9757660076
0.9770598006
0.9771278096
0.5130634942
0.5148008291
0.5212266342
0.5346604903
0.5560582778
0.5852619378
0.6209971818
0.6610924137
0.7033310048
0.7454000577
0.7856775408
0.8232012046
0.8573284751
0.8874862568
0.9130997712
0.9337375224
0.9493175131
0.960185241
0.9669915387
0.9705432166
0.9717946997
0.9717989228
0.5098365436
0.5116067831
0.5182473226
0.5320971
0.5540476256
0.5838827101
0.6202744217
0.661027392
0.7036317746
0.7458684239
0.786010512
0.822954494
0.8560929239
0.8850522545
0.909510623
0.9292395936
0.944228212
0.9547643745
0.9613813076
0.9647785845
0.9658776259
0.9657573564
0.5065470028
0.5083568926
0.5152057198
0.5294020502
0.5517496514
0.5819727695
0.6187156482
0.6597987617
0.7026985072
0.745062775
0.785079067
0.8215964179
0.8540129144
0.8820455413
0.905541605
0.9244331675
0.9387892768
0.9488815991
0.9551685479
0.9582790777
0.9591226954
0.9588154693
0.5032146827
0.50507455
0.5121162568
0.5265561894
0.5490928657
0.5793906455
0.6160989597
0.6571106389
0.6999584705
0.7422745302
0.7821732897
0.8184203265
0.8503689405
0.8777631083
0.9005444561
0.9187549097
0.9325326377
0.9421543538
0.9480287801
0.9507588163
0.9512601823
0.950706925
0.4998674565
0.501785673
0.5089844406
0.5235186372
0.545973758
0.5759532368
0.6121478428
0.6525814348
0.694924355
0.736879539
0.7765396281
0.8125870923
0.8442885174
0.871345524
0.893715463
0.9114883564
0.9248424242
0.9340610522
0.9395205372
0.9418303248
0.941930999
0.9410832805
0.4965379685
0.49851356
0.505799056
0.5202202739
0.5422505927
0.5714289804
0.6065224204
0.6457439966
0.6869851666
0.7281107897
0.7672627216
0.8030680611
0.8346841428
0.8617067886
0.884026137
0.9017044399
0.9149103545
0.9239140087
0.9290637278
0.9309992886
0.9306869664
0.929517816
0.4932594449
0.4952756025
0.5025258431
0.5165656223
0.5377450518
0.5655403893
0.598826401
0.6360612165
0.675437377
0.7150780314
0.7532643886
0.7886258634
0.8202176324
0.84748404
0.8701662867
0.8882082773
0.9016944291
0.9108345019
0.9159347958
0.9176564696
0.9170006026
0.9155191292
0.4900606481
0.4920836143
0.4991054728
0.5124372696
0.5322556616
0.5579866882
0.588643779
0.6229775254
0.6595510104
0.6968414744
0.7333751342
0.7678738446
0.7993390578
0.8270521501
0.8505383182
0.8695230665
0.8839030804
0.8937440106
0.8992643141
0.9010981325
0.9002862942
0.8985563197
0.4869618103
0.4889209694
0.4954909372
0.5077206364
0.525594588
0.5485043836
0.5756288239
0.606042365
0.638728434
0.6726024659
0.7065462691
0.7394917116
0.7704844199
0.7986853669
0.8233753139
0.8439687033
0.8600463644
0.8714008753
0.8780669331
0.8805605071
0.8799361243
0.8780973269
0.4839738208
0.485774131
0.4916374111
0.5023316117
0.5176511727
0.5369755298
0.5596682149
0.5851373761
0.612804267
0.6420754256
0.6722834252
0.7026956456
0.7325438903
0.7609814524
0.7870893661
0.8099228476
0.8286176193
0.8425225061
0.8513250292
0.8552802229
0.8553732296
0.8536597421
0.4811069145
0.4826388084
0.4875280625
0.4962645687
0.5084818654
0.5235772574
0.5411071779
0.5607980255
0.5824788635
0.6060395988
0.6313134996
0.6579975308
0.6856636492
0.7136366434
0.740950102
0.7663574885
0.7884788197
0.8060419212
0.8181522637
0.824595426
0.8261274
0.8248759158
0.478375153
0.4795286252
0.4832032366
0.4896499712
0.4984082872
0.5089329359
0.5209674588
0.5345153605
0.5497264839
0.5668769563
0.5862680391
0.6080378676
0.6322022726
0.6584574222
0.6860499688
0.7136595138
0.7394811239
0.7615266587
0.7780593414
0.7881038891
0.791935935
0.7915822522
0.4757975888
0.476482288
0.4787793961
0.482788605
0.4880600587
0.4941615735
0.5009974856
0.5087659142
0.5178184414
0.5286359512
0.5418204717
0.5578627443
0.5772118139
0.6000610197
0.6261549137
0.6544945262
0.6832060682
0.7097196233
0.731310417
0.7458913837
0.7528826587
0.7539271448
0.4733995291
0.4735660266
0.4744484967
0.4761276563
0.4782949946
0.4806929247
0.4833444891
0.4865297025
0.4906120055
0.4960882728
0.503621272
0.5138612208
0.5275507667
0.5453468866
0.5676312071
0.5941195153
0.6234790698
0.6530556631
0.6793078834
0.6987823842
0.7095622014
0.7124934771
0.4712097783
0.4708649695
0.47044586
0.4701646577
0.4699748638
0.469855829
0.469835321
0.470189832
0.4710779276
0.4728751508
0.476116567
0.4813501728
0.4894037605
0.5012440006
0.5177586143
0.5394380074
0.5661093446
0.5958060189
0.624858205
0.6485735789
0.6632477858
0.6684207421
0.4692532048
0.468461227
0.4669814704
0.4652840094
0.4636625028
0.4622396117
0.4611094295
0.4604963571
0.4602958022
0.4605209406
0.4614782069
0.4633973538
0.4667725231
0.4724513353
0.4818507783
0.4966857481
0.5174672255
0.5434971827
0.5720803658
0.5981073037
0.616015709
0.6234734922
0.4675412089
0.4664052757
0.4641658201
0.4616055918
0.4593428131
0.4575989695
0.4563909992
0.4556636319
0.4553059418
0.4551871249
0.4552985074
0.4557860204
0.4568387672
0.4589002948
0.4627574948
0.4698060952
0.4821762339
0.5014453148
0.5257511308
0.5510515108
0.5706591604
0.5799715834
0.4660707199
0.464708234
0.4619990938
0.4590109668
0.456607302
0.4550162462
0.4540965942
0.4536319677
0.4534082015
0.4533028777
0.4532638408
0.453266532
0.4534043964
0.4538567594
0.4549414163
0.4574306074
0.4626568208
0.4727755963
0.4899842553
0.5112519455
0.5302862199
0.540514799
0.4648274933
0.463350072
0.4604084418
0.4572709022
0.4549524627
0.453713224
0.4531674351
0.4529690888
0.4529128833
0.4528921146
0.4528462743
0.4527490464
0.4526168049
0.4525186266
0.4525059002
0.4529820645
0.4544840681
0.4584385906
0.4669572523
0.4816098627
0.497633989
0.507481177
0.4637896334
0.4622912447
0.4592890554
0.4561454086
0.4540725854
0.4531794051
0.4529218982
0.4529070302
0.4530226173
0.4530808011
0.4530864305
0.4529665397
0.4527101104
0.4523873113
0.4520547111
0.4518710932
0.4518556571
0.4527968293
0.4558682791
0.4630656971
0.4742456318
0.482425741
0.4629330234
0.4614888425
0.4585545338
0.4555043166
0.453677745
0.4530171133
0.452908898
0.4530653383
0.4533710245
0.4535650209
0.4536368824
0.4536159672
0.4533900687
0.4529787893
0.4524106765
0.4517818899
0.4513286658
0.451140754
0.4516937879
0.4541960512
0.4598932733
0.4655973784
0.4622337766
0.4609010289
0.4581337971
0.4552498982
0.4535682434
0.4530098617
0.4529665839
0.453287438
0.4536857962
0.4539852645
0.4541268678
0.4541596892
0.4540369765
0.4537050785
0.4531675127
0.4524271246
0.451553021
0.450851788
0.4505459282
0.4508862962
0.4528989161
0.4559158528
0.461664406
0.4604965678
0.4579704822
0.455277443
0.4536067648
0.4530479719
0.4530579672
0.4534355891
0.4538820897
0.4542475455
0.4544639306
0.4545395664
0.4544961169
0.4542509516
0.453787728
0.4530994503
0.4522130966
0.4512060117
0.4503656142
0.4499954689
0.4502264548
0.4513152585
0.461211352
0.4602302296
0.4579904315
0.4554280411
0.4537440248
0.4531313268
0.453129651
0.4534967481
0.45395049
0.4543465612
0.4546308753
0.4547775174
0.4548064799
0.4546582485
0.4542765488
0.4536315834
0.4527547405
0.4517364409
0.4506971208
0.4498612047
0.4495008234
0.4495856811
0.4608629623
0.4600553741
0.458096172
0.4557498039
0.4540392594
0.453284378
0.453194031
0.4534958795
0.4539245236
0.4543290203
0.4546533075
0.454871965
0.4549734748
0.4549359046
0.4546560558
0.4540763552
0.4532054191
0.4521474222
0.4510723513
0.4500918556
0.449400978
0.4491442242
0.46060903
0.4599610254
0.4583256613
0.4562047289
0.4544795245
0.4535533509
0.4533124737
0.4534883636
0.4538531372
0.4542450927
0.4545864485
0.4548606771
0.4550374995
0.4550959949
0.4549275813
0.4544298502
0.4535821265
0.4524921372
0.4513560324
0.4503407604
0.4495280735
0.4491292142
0.4604145311
0.4599254373
0.4586271751
0.4567594469
0.4550611113
0.4539697904
0.4535220536
0.4535407098
0.4537705361
0.4541214816
0.4544675984
0.4547780677
0.4550330475
0.4551726541
0.4551101335
0.45469869
0.4538801725
0.4527615416
0.4515759458
0.4505147307
0.4496814062
0.4492559538
0.4601721511
0.4598642146
0.4589476385
0.4573841761
0.4557806261
0.4545665332
0.4538961272
0.4537025598
0.4537965907
0.4540406389
0.4543547124
0.4546767741
0.4549762342
0.4552013813
0.4552278324
0.4548982858
0.4541090704
0.4529580807
0.4517177163
0.4506192369
0.4497620379
0.4493340198
0.4596732694
0.4596385177
0.4591275573
0.4580180068
0.4566126275
0.4553572528
0.4544913093
0.4540518463
0.4539609434
0.4540717998
0.4543138795
0.454613202
0.4549360514
0.4552109512
0.4553046876
0.4550419128
0.4542701822
0.4530638558
0.4517860039
0.4506674494
0.4497963926
0.4493573217
0.458593052
0.4589570235
0.4589177224
0.458405802
0.4574321134
0.456309024
0.4553369116
0.4546757572
0.4543357638
0.4542766794
0.4543869855
0.4546310916
0.4549371117
0.4552361093
0.4553617386
0.4551438009
0.4543540277
0.4531043427
0.4518059687
0.4506803284
0.449804884
0.4493499834
0.4565838043
0.4573224479
0.458026072
0.4580895768
0.4577395035
0.4570757881
0.4562763654
0.4555347767
0.4549940135
0.454710243
0.4546673408
0.4547733928
0.4550216975
0.4553079225
0.455423891
0.4551952577
0.4543821302
0.4530808927
0.4517410386
0.4506270663
0.4497710558
0.4493016972
0.4538035227
0.4546635751
0.4558574958
0.4567935181
0.4571497957
0.4570112063
0.4566713951
0.4562136216
0.4557045671
0.4552992416
0.4550940256
0.4550974824
0.4552118029
0.4554351327
0.4554949999
0.4552122875
0.4543137908
0.452910739
0.4515552061
0.450483576
0.4496773278
0.4492187078
0.4516667866
0.4522981525
0.4534066195
0.4544214908
0.4553076112
0.4560656648
0.4563099061
0.4562084836
0.455993951
0.4557308985
0.4555009093
0.4554221169
0.4554620752
0.4555788005
0.455546806
0.455160434
0.4541028872
0.4526285794
0.4512855099
0.4502790822
0.4495409132
0.4491101797
0.4519814523
0.4525155482
0.4536587664
0.4542470159
0.454494256
0.4547992113
0.4551988863
0.4556852012
0.455831608
0.4557661713
0.4556679066
0.4556246894
0.4556419244
0.4556814828
0.4555554266
0.4549887492
0.4537273636
0.4522099077
0.4509072459
0.449998413
0.4493588158
0.4489709683
0.4555979691
0.4572306623
0.4591036621
0.4592996527
0.458287525
0.4565830744
0.4555689299
0.4552795018
0.4553286348
0.4555635751
0.4556238775
0.4556548355
0.4557096482
0.4556897321
0.45543406
0.4546224157
0.4531840358
0.4516664061
0.4504413206
0.4496608969
0.4491383168
0.448806082
0.4621196171
0.464215534
0.4654247013
0.465804559
0.4653588523
0.4632358434
0.4587847519
0.4561703784
0.4553516887
0.4552189567
0.4554084606
0.4555902259
0.4556845759
0.4556098919
0.4551467514
0.454025585
0.4525050885
0.4510186036
0.4499157523
0.4492956259
0.4488977117
0.4486246808
0.4657497955
0.4660433759
0.4665070151
0.4670848283
0.4675790014
0.4673412487
0.4653625929
0.4594827752
0.4562304168
0.4552881434
0.455156834
0.4553861051
0.4555641819
0.4553973917
0.4546974594
0.4532879052
0.4517181638
0.4502922953
0.4493770406
0.4489484815
0.4486705362
0.4484475208
0.4654596081
0.4647082612
0.4648729509
0.4656069743
0.4669994802
0.4681453461
0.4679265433
0.4655682368
0.4592932628
0.4559517262
0.4551654755
0.4551338154
0.4552820998
0.4550069914
0.4540274004
0.4524287937
0.450820043
0.4495344203
0.4489244592
0.4487618418
0.4485546329
0.4483239539
0.4623337647
0.4613464725
0.4615816198
0.4626249195
0.4646657622
0.4671432828
0.4681614601
0.4674541038
0.4639587808
0.4578936622
0.455495839
0.4550073585
0.4549372445
0.4544944349
0.4531044889
0.4513143153
0.4497764071
0.4488544665
0.4487062882
0.4487194004
0.4485456388
0.4482883252
0.4579024174
0.4573512656
0.4578216371
0.4592552757
0.4619923667
0.4657825233
0.4680575867
0.4675965064
0.465436169
0.4601790799
0.4563740547
0.4550965951
0.4547162359
0.4538410944
0.4516469605
0.4499059443
0.4488345625
0.4485274316
0.4486945396
0.4490048446
0.4488061132
0.4484303621
0.4538714771
0.453960933
0.454528352
0.4564826993
0.4590379735
0.4640434679
0.4672836124
0.4667040252
0.4650013791
0.4609277845
0.4571567947
0.455319522
0.4545865758
0.4524867053
0.4497983574
0.4489400317
0.4484201173
0.4485491765
0.4490738588
0.4497716284
0.44947955
0.4488204804
0.4507876841
0.4510991773
0.4521332265
0.4534077835
0.4547712586
0.4597940223
0.4754156875
0.4645506689
0.4628915738
0.4603165402
0.4571751079
0.4553226222
0.4541344399
0.450539355
0.4487820606
0.449015891
0.4493631032
0.4503811105
0.4509651749
0.4519456274
0.4511175076
0.450004961
0.4483147848
0.4488319433
0.4499604776
0.4508774693
0.4521652843
0.4581132
0.4758595066
0.4610024646
0.4597915264
0.458104966
0.4562974099
0.4547478569
0.4524230575
0.4481797418
0.4481842009
0.4597571019
0.4603758414
0.4613734883
0.4619458714
0.4629067148
0.4620951575
0.4610048618
0.4463007668
0.4470935944
0.4480247973
0.448879991
0.4505099499
0.4707717661
0.4894406481
0.4688063051
0.4568697557
0.4550127927
0.4537893362
0.4524202741
0.4488715179
0.4469155567
0.4471382776
0.4582065719
0.4724924905
0.4832555255
0.4799206859
0.4756993803
0.4866944485
0.9999445612
0.4447719969
0.4454418091
0.4461679104
0.4467878547
0.4489521884
0.4664458494
0.4847027902
0.4803743595
0.4653556353
0.4519427083
0.450180862
0.4488086073
0.4466389799
0.4466794136
0.4577462704
0.4782101874
0.4917774824
0.5027532134
0.9948637276
0.9998927285
0.9999943219
0.999999994
0.4436248138
0.4442978499
0.4448130227
0.4453436582
0.4490597893
0.4660406185
0.4834329468
0.4886161735
0.4730284936
0.4608360912
0.4479329869
0.4463082011
0.4461405346
0.4463501442
0.4574258419
0.4774437284
0.4900769224
0.5017190303
0.9957507935
0.9999997112
0.9999999997
1
0.4429940243
0.4434458011
0.4437532286
0.4443445972
0.4598327615
0.4749770021
0.4912717994
0.5049359895
0.4978463505
0.4878658698
0.4583888246
0.4464509507
0.4463994619
0.4466674662
0.4603544434
0.4746156558
0.4865591338
0.5145670991
0.9987916607
0.9999999247
1
1
0.4426019385
0.4429503823
0.4432089212
0.4439228587
0.4569592911
0.471208511
0.4872051945
0.502011216
0.507983954
0.4980444588
0.4701003405
0.4578016604
0.4575452665
0.4577976382
0.4715274122
0.4873494154
0.4995841467
0.6852446056
0.9998457452
0.9999999905
1
1
0.442568086
0.4427505823
0.443003259
0.454670937
0.4664016649
0.4801888976
0.4962142284
0.51300003
0.5197652689
0.5080888209
0.481172038
0.4686474404
0.4684215625
0.4690171728
0.4821678225
0.4980214772
0.6749532798
0.996693567
0.9999997517
1
1
1
0.4428076866
0.4427347141
0.4428970724
0.4547306395
0.4657830843
0.4875811028
0.5082534691
0.5812080301
0.6087195675
0.5532819965
0.5289998649
0.5246435043
0.4836838223
0.4916027498
0.6821443437
0.9291811501
0.9969327804
0.9999991404
0.9999999999
1
1
1
0.4434243492
0.4431000232
0.443160623
0.45443101
0.4653450957
0.4772315252
0.9981577897
0.9877843315
0.7638657061
0.6027832515
0.560003243
0.5800916406
0.6618525063
0.9491967831
0.9961739645
0.9999152523
0.9999998001
0.9999999998
1
1
1
1
0.4443623285
0.44366986
0.4436907367
0.4548402971
0.4657448403
0.4880996743
0.9993574196
0.9999296867
0.9847334689
0.8731780452
0.7921231717
0.7935376318
0.9909850853
0.999573906
0.9999770622
0.9999997984
0.9999999998
1
1
1
1
1
0.4456218465
0.4445966347
0.4445769419
0.455688873
0.4665771904
0.9614558289
0.999971688
1
1
0.9989220994
0.9928294359
0.9985973618
0.9998032954
0.9999910949
0.9999998409
0.9999999993
1
1
1
1
1
1
0.4472293371
0.4457786403
0.4456999255
0.4567860272
0.4743521033
0.9754012852
1
0.9999999996
1
0.9999899828
0.999881431
0.9999909835
0.9999977681
0.9999998863
0.999999999
1
1
1
1
1
1
1
0.4491037396
0.4474390362
0.4472199057
0.4582755079
0.4804125654
0.9931188694
0.9999995163
1
0.999999999
0.9999999135
0.9999988044
0.9999999164
0.9999999776
0.9999999991
1
1
1
1
1
1
1
1
0.4511480998
0.4489319021
0.4487535708
0.4597784995
0.5262439102
0.9967546411
0.9999993729
1
1
0.9999999992
0.9999999891
0.9999999992
0.9999999998
1
1
1
1
1
1
1
1
1
0.453961204
0.4510940899
0.4510656666
0.4620443533
0.5612880742
0.9994663557
1
0.9999999998
1
1
0.9999999999
1
1
1
1
1
1
1
1
1
1
1
0.4580234848
0.4553899194
0.4550952098
0.4659933056
0.8123547077
0.9998897052
0.9999999925
1
1
1
1
1
1
1
1
1
1
1
1
1
1
1
0.4604768008
0.4585749723
0.4583297738
0.4691631784
0.8807558686
0.9999555512
1
1
1
1
1
1
1
1
1
1
1
1
1
1
1
1
0.4638699976
0.4631501
0.462893532
0.4736356613
0.9834461096
0.999998993
1
1
1
1
1
1
1
1
1
1
1
1
1
1
1
1
0.4693456152
0.4677501484
0.4674203399
0.4780719331
0.9993076133
0.9999997761
0.9999999999
1
1
1
1
1
1
1
1
1
1
1
1
1
1
1
0.4729249879
0.4708545362
0.4705622607
0.4811510154
0.9996673341
0.9999997938
0.9999999999
1
1
1
1
1
1
1
1
1
1
1
1
1
1
1
0.4752336911
0.4742980298
0.4740753786
0.484593871
0.9996668565
0.9999997109
0.9999999998
1
1
1
1
1
1
1
1
1
1
1
1
1
1
1
0.4771310872
0.4757344962
0.4758884499
0.4863706809
0.9993423954
0.999999277
0.9999999993
1
1
1
1
1
1
1
1
1
1
1
1
1
1
1
0.4786459409
0.4792967792
0.4793591704
0.489771987
0.9993591889
0.9999991809
0.9999999992
1
1
1
1
1
1
1
1
1
1
1
1
1
1
1
0.4795216645
0.4809527077
0.4811585803
0.4915354087
0.9993954432
0.9999991728
0.9999999991
1
1
1
1
1
1
1
1
1
1
1
1
1
1
1
0.4833022393
0.4843863321
0.4844865961
0.4947968642
0.9990260658
0.9999979113
0.9999999976
1
1
1
1
1
1
1
1
1
1
1
1
1
1
1
0.485354482
0.4850218734
0.4853762362
0.4956687115
0.99923412
0.9999986384
0.9999999984
1
1
1
1
1
1
1
1
1
1
1
1
1
1
1
0.4860840263
0.4875041454
0.488081028
0.4983194074
0.9993452184
0.9999989898
0.9999999988
1
1
1
1
1
1
1
1
1
1
1
1
1
1
1
0.4875172803
0.4911344797
0.4918803688
0.5020427614
0.9995617606
0.9999994151
0.9999999993
1
1
1
1
1
1
1
1
1
1
1
1
1
1
1
0.4867148947
0.4943704976
0.4956458312
0.5057329145
0.9995043508
0.9999994036
0.9999999993
1
1
1
1
1
1
1
1
1
1
1
1
1
1
1
0.4864887129
0.5013660491
0.5032667881
0.5132014524
0.9996377759
0.9999995602
0.9999999995
1
1
1
1
1
1
1
1
1
1
1
1
1
1
1
0.5062741964
0.5157088211
0.5168856978
0.5265479839
0.9991014237
0.9999976603
0.9999999973
1
1
1
1
1
1
1
1
1
1
1
1
1
1
1
0.5195986921
0.527194389
0.5287915886
0.5382157569
0.9995599223
0.9999994852
0.9999999994
1
1
1
1
1
1
1
1
1
1
1
1
1
1
1
0.5296047034
0.5410574762
0.5424822039
0.5516325598
0.99951896
0.9999993265
0.9999999991
1
1
1
1
1
1
1
1
1
1
1
1
1
1
1
0.5605030983
0.5542829149
0.554420741
0.5633323262
0.999434395
0.9999989177
0.9999999984
1
1
1
1
1
1
1
1
1
1
1
1
1
1
1
0.5543757701
0.5578156801
0.5603420147
0.5691351744
0.9995079091
0.999999179
0.9999999987
1
1
1
1
1
1
1
1
1
1
1
1
1
1
1
0.5633101523
0.575152155
0.5770915386
0.5855497079
0.9995045372
0.9999989007
0.9999999978
1
1
1
1
1
1
1
1
1
1
1
1
1
1
1
0.608167657
0.5938066415
0.5941180241
0.6022356637
0.9995486556
0.9999991533
0.9999999986
1
1
1
1
1
1
1
1
1
1
1
1
1
1
1
0.6120128699
0.6039633828
0.6035698341
0.6114984374
0.9995608354
0.9999993235
0.9999999989
1
1
1
1
1
1
1
1
1
1
1
1
1
1
1
0.6142658049
0.6021315415
0.6047551808
0.6126600771
0.9998188714
0.9999997095
0.9999999993
1
1
1
1
1
1
1
1
1
1
1
1
1
1
1
0.6277791302
0.6200769144
0.6233138991
0.6308476212
0.9997713407
0.9999998206
0.9999999997
1
1
1
1
1
1
1
1
1
1
1
1
1
1
1
0.6111185039
0.6218523406
0.6309988458
0.6383788689
0.9998286592
0.9999999338
1
1
1
1
1
1
1
1
1
1
1
1
1
1
1
1
0.59979811
0.6447782423
0.6546885753
0.6615948038
0.9997402944
0.9999998934
1
1
1
1
1
1
1
1
1
1
1
1
1
1
1
1
0.6417230159
0.6664862105
0.6760937512
0.6825718761
0.9999258234
0.9999999459
1
1
1
1
1
1
1
1
1
1
1
1
1
1
1
1
0.6768516242
0.6937493931
0.7016926533
0.7076588002
0.9999294637
0.9999999536
1
1
1
1
1
1
1
1
1
1
1
1
1
1
1
1
0.6974936967
0.7089019447
0.7148153181
0.7205190117
0.9998908613
0.9999999343
0.9999999999
1
1
1
1
1
1
1
1
1
1
1
1
1
1
1
0.716986418
0.7298165677
0.7312239519
0.7365994728
0.9998815214
0.9999999329
1
1
1
1
1
1
1
1
1
1
1
1
1
1
1
1
0.7259647357
0.7299997393
0.7364450701
0.9998095394
0.9999998407
0.9999999999
1
1
1
1
1
1
1
1
1
1
1
1
1
1
1
1
0.731445441
0.7353997446
0.9999254672
0.9999998745
0.9999999999
1
1
1
1
1
1
1
1
1
1
1
1
1
1
1
1
1
0.9999983164
0.999995758
0.9999999859
1
1
1
1
1
1
1
1
1
1
1
1
1
1
1
1
1
1
1
0.9999999999
0.9999999999
1
1
1
1
1
1
1
1
1
1
1
1
1
1
1
1
1
1
1
1
0.8053411989
0.8016482123
0.7600586918
0.7833829607
0.7761808975
0.7503861379
0.7877153015
0.7806572795
0.7553784152
0.9999978136
0.999998167
0.9999978057
0.9999999999
1
0.9999999999
)
;

boundaryField
{
    inlet
    {
        type            fixedValue;
        value           uniform 0.808;
    }
    frontandback
    {
        type            empty;
    }
    walls
    {
        type            zeroGradient;
    }
    outlet
    {
        type            inletOutlet;
        phi             phi.gas;
        inletValue      uniform 1;
        value           nonuniform List<scalar> 
22
(
0.5348527934
0.5367905325
0.54193556
0.5518074031
0.5675046567
0.5895500899
0.6179205886
0.6523295086
0.6926627422
0.7395364256
0.7947599298
0.8620852732
1
1
1
1
1
1
1
1
1
1
)
;
    }
}


// ************************************************************************* //
