/*--------------------------------*- C++ -*----------------------------------*\
  =========                 |
  \\      /  F ield         | OpenFOAM: The Open Source CFD Toolbox
   \\    /   O peration     | Website:  https://openfoam.org
    \\  /    A nd           | Version:  9
     \\/     M anipulation  |
\*---------------------------------------------------------------------------*/
FoamFile
{
    format      ascii;
    class       volScalarField;
    location    "10";
    object      F.gas;
}
// * * * * * * * * * * * * * * * * * * * * * * * * * * * * * * * * * * * * * //

dimensions      [0 0 0 0 0 0 0];

internalField   nonuniform List<scalar> 
2215
(
1.287585755e-10
1.28157094e-10
1.2664659e-10
1.23850945e-10
1.194883643e-10
1.134154851e-10
1.056298978e-10
9.619683993e-11
8.512597752e-11
7.222821424e-11
5.697762324e-11
3.832208677e-11
1.388416197e-11
5.48262279e-12
2.281632505e-12
9.965446203e-13
4.689172549e-13
2.509699141e-13
1.653528415e-13
1.429228211e-13
1.564037723e-13
1.861165369e-13
1.291441272e-10
1.286196865e-10
1.271606645e-10
1.243280872e-10
1.198344089e-10
1.135716739e-10
1.056052712e-10
9.609059429e-11
8.513777655e-11
7.270738703e-11
5.852454254e-11
4.248088928e-11
2.552758866e-11
1.40833387e-11
7.405944983e-12
3.826665627e-12
2.017554532e-12
1.145136694e-12
7.52633043e-13
6.106140943e-13
6.036842413e-13
6.520002929e-13
1.29719148e-10
1.292316424e-10
1.277606423e-10
1.248288948e-10
1.201574843e-10
1.13668301e-10
1.054811313e-10
9.58382878e-11
8.49637575e-11
7.294228366e-11
5.984070164e-11
4.571016597e-11
3.158041779e-11
2.001594178e-11
1.189810426e-11
6.818363583e-12
3.904876223e-12
2.348251689e-12
1.582814953e-12
1.267216055e-12
1.202299211e-12
1.246482169e-12
1.303848578e-10
1.299076315e-10
1.283974696e-10
1.253480012e-10
1.204809858e-10
1.137420302e-10
1.052985979e-10
9.547410928e-11
8.460220121e-11
7.290613027e-11
6.051683941e-11
4.768631202e-11
3.507219725e-11
2.402837424e-11
1.549228334e-11
9.594936234e-12
5.888810022e-12
3.743182376e-12
2.610075665e-12
2.100950886e-12
1.957456512e-12
1.985018705e-12
1.311004709e-10
1.306229389e-10
1.290633741e-10
1.258866788e-10
1.20813122e-10
1.138089027e-10
1.05083245e-10
9.503477826e-11
8.408855252e-11
7.257233478e-11
6.069827048e-11
4.873944579e-11
3.714338868e-11
2.67341808e-11
1.825690275e-11
1.200919565e-11
7.812672541e-12
5.226316559e-12
3.78003327e-12
3.089211878e-12
2.864338873e-12
2.87104744e-12
1.318515371e-10
1.313706641e-10
1.297577002e-10
1.264488074e-10
1.211640285e-10
1.138884378e-10
1.048670134e-10
9.457141813e-11
8.34976413e-11
7.206068916e-11
6.054399994e-11
4.918956978e-11
3.835254482e-11
2.855602486e-11
2.03507214e-11
1.404423278e-11
9.60006493e-12
6.726759311e-12
5.046430486e-12
4.208218591e-12
3.913875436e-12
3.90251265e-12
1.326340061e-10
1.321492638e-10
1.304807483e-10
1.270377602e-10
1.215443354e-10
1.140055254e-10
1.047003468e-10
9.414096649e-11
8.290692577e-11
7.147647992e-11
6.018900601e-11
4.928589846e-11
3.903556246e-11
2.979110604e-11
2.19424941e-11
1.57486149e-11
1.123385662e-11
8.20899089e-12
6.380099541e-12
5.440877049e-12
5.099236957e-12
5.078124972e-12
1.334467213e-10
1.32957376e-10
1.31230922e-10
1.276544215e-10
1.219615504e-10
1.141790542e-10
1.046301279e-10
9.38095844e-11
8.239578148e-11
7.09261166e-11
5.978158513e-11
4.921228051e-11
3.942472734e-11
3.066231562e-11
2.31903185e-11
1.720231297e-11
1.273747292e-11
9.669683281e-12
7.771896047e-12
6.782232875e-12
6.421553727e-12
6.403075355e-12
1.342878859e-10
1.337916936e-10
1.320041163e-10
1.282981754e-10
1.224225709e-10
1.144209397e-10
1.046379437e-10
9.365952522e-11
8.208385941e-11
7.054263651e-11
5.947231238e-11
4.913422646e-11
3.970606302e-11
3.135270393e-11
2.424187161e-11
1.850193609e-11
1.41627384e-11
1.113301126e-11
9.234411956e-12
8.243552534e-12
7.89473131e-12
7.894041858e-12
1.35153472e-10
1.346462993e-10
1.327942189e-10
1.289682255e-10
1.22938813e-10
1.147661758e-10
1.048082498e-10
9.365656612e-11
8.198796557e-11
7.040278538e-11
5.93715947e-11
4.919610557e-11
4.004564979e-11
3.202870097e-11
2.524218047e-11
1.975757171e-11
1.558473828e-11
1.264845087e-11
1.080323275e-11
9.855705537e-12
9.549459056e-12
9.583448169e-12
1.360367088e-10
1.355128141e-10
1.335937313e-10
1.296641822e-10
1.235230212e-10
1.152468579e-10
1.051987855e-10
9.396293117e-11
8.221935124e-11
7.06052705e-11
5.961419555e-11
4.956170359e-11
4.061605807e-11
3.286083986e-11
2.634570835e-11
2.109719573e-11
1.710272067e-11
1.429156306e-11
1.253916306e-11
1.167195588e-11
1.14369716e-11
1.152297543e-11
1.36928438e-10
1.363815104e-10
1.343959832e-10
1.303892575e-10
1.241927392e-10
1.158997149e-10
1.058691407e-10
9.466215255e-11
8.294147974e-11
7.134825081e-11
6.039637574e-11
5.042502987e-11
4.161518384e-11
3.404293124e-11
2.773147317e-11
2.267650936e-11
1.884606741e-11
1.616802265e-11
1.453174547e-11
1.377107407e-11
1.363149042e-11
1.378585544e-11
1.378180161e-10
1.372428095e-10
1.351974358e-10
1.311530813e-10
1.249743016e-10
1.167723843e-10
1.068919147e-10
9.585481528e-11
8.428387461e-11
7.279989914e-11
6.192286395e-11
5.201521124e-11
4.328203556e-11
3.581100441e-11
2.962060758e-11
2.469285913e-11
2.098448536e-11
1.842152007e-11
1.690247926e-11
1.625956193e-11
1.623159223e-11
1.646766277e-11
1.386944811e-10
1.380888804e-10
1.360005201e-10
1.319726376e-10
1.259043855e-10
1.179254191e-10
1.083564532e-10
9.766439948e-11
8.640919546e-11
7.516603247e-11
6.444096145e-11
5.461161564e-11
4.591311048e-11
3.846200879e-11
3.229492869e-11
2.740117065e-11
2.373990895e-11
2.124087861e-11
1.981053361e-11
1.927286881e-11
1.935993933e-11
1.968508066e-11
1.395477642e-10
1.389143493e-10
1.368140312e-10
1.328728199e-10
1.270296941e-10
1.194314178e-10
1.103664694e-10
1.002319272e-10
8.950328995e-11
7.868358877e-11
6.823969808e-11
5.854796218e-11
4.987103398e-11
4.236658711e-11
3.611169324e-11
3.112784385e-11
2.739726741e-11
2.486644254e-11
2.345369476e-11
2.297736876e-11
2.31603595e-11
2.357195955e-11
1.403700284e-10
1.397163917e-10
1.376537363e-10
1.338850824e-10
1.284032815e-10
1.213688414e-10
1.130298595e-10
1.037013949e-10
9.375623415e-11
8.35992179e-11
7.362868797e-11
6.419425018e-11
5.557203178e-11
4.796332832e-11
4.150364992e-11
3.627394569e-11
3.230789095e-11
2.959178982e-11
2.806854972e-11
2.756436792e-11
2.779176923e-11
2.827217724e-11
1.411564593e-10
1.405006242e-10
1.38533038e-10
1.350404196e-10
1.300748231e-10
1.238059651e-10
1.164346141e-10
1.081863366e-10
9.931880651e-11
9.011640202e-11
8.087865925e-11
7.189566916e-11
6.342933955e-11
5.571194321e-11
4.894433953e-11
4.329170412e-11
3.887397459e-11
3.575260707e-11
3.392155069e-11
3.32401756e-11
3.341802401e-11
3.392886533e-11
1.419057909e-10
1.412723466e-10
1.394655501e-10
1.363626067e-10
1.320742802e-10
1.267727368e-10
1.206063733e-10
1.137098468e-10
1.062225192e-10
9.829521063e-11
9.010336116e-11
8.18432611e-11
7.372323115e-11
6.597459103e-11
5.884990276e-11
5.261038844e-11
4.749668136e-11
4.369164948e-11
4.12850368e-11
4.020889285e-11
4.019287947e-11
4.067016231e-11
1.426176231e-10
1.420350803e-10
1.404584881e-10
1.378561036e-10
1.343891335e-10
1.302227785e-10
1.254507442e-10
1.201220545e-10
1.142674326e-10
1.079080095e-10
1.010831038e-10
9.387065961e-11
8.638400274e-11
7.880413039e-11
7.139211787e-11
6.448731e-11
5.846841379e-11
5.368666438e-11
5.039110616e-11
4.864379608e-11
4.823870389e-11
4.859098592e-11
1.432909242e-10
1.427882974e-10
1.4150527e-10
1.39491674e-10
1.369401638e-10
1.339964722e-10
1.307004477e-10
1.270270465e-10
1.229226542e-10
1.183066774e-10
1.130931716e-10
1.072408847e-10
1.007425898e-10
9.367610804e-11
8.623931626e-11
7.8784937e-11
7.18025945e-11
6.583438453e-11
6.135765629e-11
5.86431855e-11
5.761822173e-11
5.772805142e-11
1.439236843e-10
1.435256488e-10
1.425808913e-10
1.411981852e-10
1.395722535e-10
1.378121786e-10
1.359091937e-10
1.337857323e-10
1.313350102e-10
1.284247667e-10
1.24889759e-10
1.205960838e-10
1.154239086e-10
1.09319184e-10
1.023408028e-10
9.47451739e-11
8.703625976e-11
7.990447418e-11
7.409068319e-11
7.016717543e-11
6.829580847e-11
6.802983605e-11
1.445123958e-10
1.442341929e-10
1.436420322e-10
1.428688152e-10
1.420763665e-10
1.413180321e-10
1.405440131e-10
1.396529155e-10
1.385307859e-10
1.370469171e-10
1.350190338e-10
1.32272048e-10
1.286169847e-10
1.23889099e-10
1.17975568e-10
1.109260283e-10
1.031047365e-10
9.520614637e-11
8.818235088e-11
8.296985433e-11
8.009255632e-11
7.93228561e-11
1.450525747e-10
1.448963817e-10
1.446343828e-10
1.443821171e-10
1.442452728e-10
1.441963301e-10
1.44170042e-10
1.440655645e-10
1.438019019e-10
1.432984154e-10
1.424016991e-10
1.409562801e-10
1.387577181e-10
1.355976519e-10
1.312377017e-10
1.254859848e-10
1.184368883e-10
1.10565251e-10
1.028467502e-10
9.653955709e-11
9.264195561e-11
9.127930173e-11
1.455399338e-10
1.454962875e-10
1.455119655e-10
1.456571607e-10
1.459406759e-10
1.46299578e-10
1.466490605e-10
1.468977969e-10
1.470019992e-10
1.47004402e-10
1.467554379e-10
1.462006467e-10
1.451956739e-10
1.435015248e-10
1.408157407e-10
1.368253144e-10
1.313639759e-10
1.245052394e-10
1.169605706e-10
1.100871553e-10
1.053605948e-10
1.034013739e-10
1.459759255e-10
1.460197029e-10
1.46245042e-10
1.466495005e-10
1.471579231e-10
1.47674157e-10
1.481244565e-10
1.484747727e-10
1.487169633e-10
1.488324615e-10
1.488558807e-10
1.487227487e-10
1.483677209e-10
1.476663008e-10
1.464138794e-10
1.442683582e-10
1.407400135e-10
1.356616563e-10
1.292599234e-10
1.226204328e-10
1.174808509e-10
1.150467454e-10
1.463591912e-10
1.464661222e-10
1.468309615e-10
1.473821685e-10
1.479795164e-10
1.485172023e-10
1.489508676e-10
1.49282043e-10
1.495287705e-10
1.497083853e-10
1.498117189e-10
1.498466239e-10
1.497828034e-10
1.495598913e-10
1.490620663e-10
1.481035253e-10
1.463515136e-10
1.433080086e-10
1.387089043e-10
1.331374292e-10
1.281731682e-10
1.255134124e-10
1.466943121e-10
1.468390671e-10
1.472835775e-10
1.479022847e-10
1.485125486e-10
1.490149966e-10
1.49396881e-10
1.496850446e-10
1.499087134e-10
1.500874323e-10
1.502319037e-10
1.503409231e-10
1.503894931e-10
1.503763583e-10
1.502287522e-10
1.498541238e-10
1.490792592e-10
1.475878621e-10
1.449182693e-10
1.409385762e-10
1.367449673e-10
1.341865969e-10
1.469870729e-10
1.471467821e-10
1.476241017e-10
1.482598088e-10
1.48848354e-10
1.49302018e-10
1.496329214e-10
1.498825746e-10
1.500832332e-10
1.50252485e-10
1.504004435e-10
1.505330693e-10
1.506509977e-10
1.507224025e-10
1.507373494e-10
1.506292489e-10
1.503178926e-10
1.496305725e-10
1.482811704e-10
1.459216952e-10
1.428628342e-10
1.407061392e-10
1.472440371e-10
1.473997835e-10
1.478754698e-10
1.484983743e-10
1.490547259e-10
1.494660447e-10
1.497592183e-10
1.499821567e-10
1.501657059e-10
1.503244235e-10
1.50466316e-10
1.505987562e-10
1.507288385e-10
1.508610178e-10
1.509602192e-10
1.509868756e-10
1.50892239e-10
1.505808333e-10
1.498974467e-10
1.486190317e-10
1.466858063e-10
1.450867475e-10
1.474719208e-10
1.476091452e-10
1.480583135e-10
1.486516477e-10
1.491768621e-10
1.495587152e-10
1.498288585e-10
1.500362925e-10
1.502091361e-10
1.503584911e-10
1.504905998e-10
1.506138475e-10
1.507417248e-10
1.508851494e-10
1.510439925e-10
1.511596125e-10
1.511750295e-10
1.510449425e-10
1.506755667e-10
1.499467848e-10
1.487840278e-10
1.477046533e-10
1.476776135e-10
1.477849479e-10
1.48191018e-10
1.487440705e-10
1.492422046e-10
1.496071138e-10
1.498665241e-10
1.500670745e-10
1.502345273e-10
1.503772658e-10
1.504995823e-10
1.506103372e-10
1.507265933e-10
1.508685685e-10
1.510452974e-10
1.512347845e-10
1.513466733e-10
1.513293155e-10
1.511105059e-10
1.506175035e-10
1.498525747e-10
1.491300653e-10
1.47866933e-10
1.479409973e-10
1.482855522e-10
1.487930065e-10
1.492643576e-10
1.496215644e-10
1.498806373e-10
1.500813021e-10
1.502479465e-10
1.503877722e-10
1.50502888e-10
1.506002089e-10
1.506971242e-10
1.508221689e-10
1.510016586e-10
1.512333463e-10
1.5143298e-10
1.515087395e-10
1.51416709e-10
1.510515495e-10
1.50447306e-10
1.499032168e-10
1.480441819e-10
1.480848384e-10
1.483552635e-10
1.488067591e-10
1.492532595e-10
1.496082078e-10
1.498713172e-10
1.500766143e-10
1.502465032e-10
1.503875895e-10
1.505000521e-10
1.505877519e-10
1.506665493e-10
1.507671608e-10
1.509278327e-10
1.511680799e-10
1.51452741e-10
1.516160404e-10
1.5162612e-10
1.513793815e-10
1.508637026e-10
1.503892892e-10
1.482133426e-10
1.482224875e-10
1.484123768e-10
1.488012357e-10
1.492210412e-10
1.495726372e-10
1.49843176e-10
1.500550441e-10
1.502290528e-10
1.503728486e-10
1.50486213e-10
1.505701411e-10
1.506368037e-10
1.50715861e-10
1.508528139e-10
1.510857161e-10
1.51400004e-10
1.516628951e-10
1.517581125e-10
1.51626701e-10
1.511969499e-10
1.507612701e-10
1.483811664e-10
1.483596522e-10
1.484771747e-10
1.487844468e-10
1.491633849e-10
1.495078341e-10
1.497869828e-10
1.500091044e-10
1.501905139e-10
1.503395788e-10
1.504567511e-10
1.5054214e-10
1.506034954e-10
1.506667882e-10
1.507799317e-10
1.50994125e-10
1.513164901e-10
1.516680476e-10
1.518395807e-10
1.518053547e-10
1.514639905e-10
1.510702928e-10
1.48566557e-10
1.485069552e-10
1.485591478e-10
1.487682004e-10
1.490916906e-10
1.494175484e-10
1.497003962e-10
1.499336176e-10
1.501254011e-10
1.502828448e-10
1.504075072e-10
1.50498677e-10
1.505611156e-10
1.506164245e-10
1.507123413e-10
1.509091726e-10
1.512313514e-10
1.516177969e-10
1.518760025e-10
1.519265038e-10
1.516708947e-10
1.513221353e-10
1.488194337e-10
1.48703113e-10
1.486795548e-10
1.487859469e-10
1.490206093e-10
1.493091291e-10
1.495853027e-10
1.498265056e-10
1.500301125e-10
1.501991235e-10
1.50334633e-10
1.504356568e-10
1.505048475e-10
1.505599509e-10
1.506469434e-10
1.508300883e-10
1.511444929e-10
1.515413492e-10
1.518835924e-10
1.520066208e-10
1.518274669e-10
1.515181323e-10
1.492261989e-10
1.490371391e-10
1.488847296e-10
1.488830348e-10
1.4900348e-10
1.49207252e-10
1.494490697e-10
1.496875475e-10
1.499021569e-10
1.50085797e-10
1.502359603e-10
1.503510497e-10
1.504323976e-10
1.504947358e-10
1.505818989e-10
1.507585858e-10
1.510661225e-10
1.514674577e-10
1.518643079e-10
1.52057896e-10
1.519437284e-10
1.516649753e-10
1.498581307e-10
1.49612351e-10
1.493108359e-10
1.491311365e-10
1.491156362e-10
1.492056961e-10
1.493637689e-10
1.495509874e-10
1.497547287e-10
1.499475035e-10
1.501138063e-10
1.50246817e-10
1.503454779e-10
1.504219838e-10
1.505179716e-10
1.506976842e-10
1.510004237e-10
1.513999867e-10
1.518249692e-10
1.520850296e-10
1.520266275e-10
1.517727193e-10
1.506551103e-10
1.50415267e-10
1.500562362e-10
1.497077045e-10
1.494711057e-10
1.493747996e-10
1.494107877e-10
1.495137063e-10
1.496538929e-10
1.49821164e-10
1.49988976e-10
1.501360146e-10
1.502532071e-10
1.503485882e-10
1.504611429e-10
1.506540554e-10
1.509524606e-10
1.513451364e-10
1.517963117e-10
1.520977132e-10
1.520823575e-10
1.518521382e-10
1.513507145e-10
1.511874848e-10
1.509224779e-10
1.505875185e-10
1.502457461e-10
1.498933439e-10
1.496690417e-10
1.496205861e-10
1.496666858e-10
1.497713379e-10
1.499042365e-10
1.500459231e-10
1.501735623e-10
1.502874115e-10
1.504240667e-10
1.506354727e-10
1.509294323e-10
1.513167116e-10
1.517841117e-10
1.521121533e-10
1.521169009e-10
1.519002909e-10
1.517392947e-10
1.51703538e-10
1.516128792e-10
1.513902925e-10
1.510539676e-10
1.506519937e-10
1.502573342e-10
1.499473412e-10
1.4980041e-10
1.498149462e-10
1.498898736e-10
1.500043333e-10
1.501269253e-10
1.502536354e-10
1.504120925e-10
1.506359026e-10
1.509228086e-10
1.513076061e-10
1.51790625e-10
1.521344939e-10
1.521419393e-10
1.519182119e-10
1.521361373e-10
1.524489038e-10
1.526247234e-10
1.524894415e-10
1.519734648e-10
1.513607686e-10
1.508184297e-10
1.504078164e-10
1.500998542e-10
1.499479034e-10
1.499449822e-10
1.500111268e-10
1.501261357e-10
1.502591546e-10
1.504348862e-10
1.506700795e-10
1.509470622e-10
1.513408287e-10
1.518444382e-10
1.521728198e-10
1.521549332e-10
1.519153321e-10
1.535590691e-10
1.550316339e-10
1.556109026e-10
1.55407567e-10
1.545607642e-10
1.529797332e-10
1.516470473e-10
1.508695004e-10
1.504456023e-10
1.501812754e-10
1.500641705e-10
1.500695098e-10
1.501491661e-10
1.502920419e-10
1.504871216e-10
1.507239619e-10
1.509977616e-10
1.514218303e-10
1.519432493e-10
1.522252252e-10
1.521575007e-10
1.518647041e-10
1.570267563e-10
1.590675205e-10
1.592652511e-10
1.588007189e-10
1.578464044e-10
1.559334995e-10
1.536082072e-10
1.5169865e-10
1.508349582e-10
1.50438686e-10
1.502284217e-10
1.501688963e-10
1.502114497e-10
1.503431389e-10
1.505488706e-10
1.507874465e-10
1.510814135e-10
1.515642124e-10
1.52089424e-10
1.522737094e-10
1.521096752e-10
1.51751084e-10
1.60909339e-10
1.619286113e-10
1.61910048e-10
1.613606979e-10
1.60217905e-10
1.580878449e-10
1.558082986e-10
1.533573889e-10
1.515627686e-10
1.507576348e-10
1.504232601e-10
1.502882184e-10
1.502998174e-10
1.504023089e-10
1.50619782e-10
1.508793323e-10
1.512238989e-10
1.517827881e-10
1.522639988e-10
1.522935896e-10
1.519721896e-10
1.515774512e-10
1.634815756e-10
1.640553207e-10
1.63980428e-10
1.635882842e-10
1.623350729e-10
1.600886172e-10
1.569999903e-10
1.544163658e-10
1.524089497e-10
1.51188162e-10
1.506497749e-10
1.504263442e-10
1.504062176e-10
1.504981845e-10
1.507394229e-10
1.51041082e-10
1.514640653e-10
1.520791066e-10
1.52416755e-10
1.522494746e-10
1.517474368e-10
1.513638522e-10
1.651045075e-10
1.652676007e-10
1.6525159e-10
1.648216407e-10
1.638622974e-10
1.608358233e-10
1.561948477e-10
1.53995333e-10
1.523809059e-10
1.513314497e-10
1.50811589e-10
1.505558303e-10
1.505269379e-10
1.50643947e-10
1.509665611e-10
1.513050647e-10
1.518042965e-10
1.523494078e-10
1.524889768e-10
1.521165357e-10
1.515473243e-10
1.511815417e-10
1.656755181e-10
1.656887868e-10
1.655996901e-10
1.653972775e-10
1.647561151e-10
1.618893628e-10
1.543458649e-10
1.526614185e-10
1.51934842e-10
1.512651097e-10
1.508477555e-10
1.506419017e-10
1.506408987e-10
1.508474848e-10
1.513133292e-10
1.515500637e-10
1.520291697e-10
1.524506952e-10
1.524739249e-10
1.520556613e-10
1.514116791e-10
1.510462265e-10
1.657805127e-10
1.657759459e-10
1.657810621e-10
1.657270958e-10
1.654884184e-10
1.634920427e-10
1.487633007e-10
1.515327415e-10
1.512004781e-10
1.509934569e-10
1.508021999e-10
1.506808483e-10
1.507289169e-10
1.511744355e-10
1.515054587e-10
1.515460561e-10
1.519873109e-10
1.521834916e-10
1.521226363e-10
1.517207754e-10
1.509728729e-10
1.507082039e-10
1.657243116e-10
1.657518877e-10
1.657914505e-10
1.657839583e-10
1.656516526e-10
1.639477868e-10
1.511442257e-10
1.507475324e-10
1.506311993e-10
1.506817473e-10
1.506849764e-10
1.507056798e-10
1.508924227e-10
1.515936046e-10
1.515836312e-10
1.485277154e-10
1.489475646e-10
1.491398217e-10
1.490801836e-10
1.486863599e-10
1.479534154e-10
1.476940399e-10
1.655511568e-10
1.656271332e-10
1.656955334e-10
1.657253624e-10
1.65519962e-10
1.59753688e-10
1.535557195e-10
1.475668218e-10
1.505693819e-10
1.505707011e-10
1.506927982e-10
1.508321503e-10
1.51378639e-10
1.519793081e-10
1.519097857e-10
1.488685627e-10
1.449407861e-10
1.420048123e-10
1.440993157e-10
1.451449003e-10
1.411872598e-10
1.521811292e-14
1.653335355e-10
1.654212623e-10
1.655102777e-10
1.655499302e-10
1.65304063e-10
1.602731989e-10
1.549460041e-10
1.448082032e-10
1.475970683e-10
1.508361707e-10
1.510030971e-10
1.513008495e-10
1.520256235e-10
1.521076325e-10
1.490653082e-10
1.434981534e-10
1.397893121e-10
1.367704006e-10
1.415305639e-12
2.969612659e-14
1.561814478e-15
1.656502019e-18
1.65093549e-10
1.65206778e-10
1.652900092e-10
1.653046205e-10
1.643627887e-10
1.595026181e-10
1.544639373e-10
1.448434318e-10
1.449013345e-10
1.481912417e-10
1.516369372e-10
1.521018915e-10
1.523477412e-10
1.522825043e-10
1.492361266e-10
1.437990443e-10
1.403415737e-10
1.371374875e-10
1.169472286e-12
7.949988066e-17
7.023296866e-20
1.863134362e-22
1.648493276e-10
1.649750732e-10
1.650426863e-10
1.649972268e-10
1.606289186e-10
1.563025416e-10
1.51633839e-10
1.428048911e-10
1.39224162e-10
1.420008005e-10
1.487787963e-10
1.520640007e-10
1.522694032e-10
1.521954716e-10
1.484426872e-10
1.44537321e-10
1.412588727e-10
1.335536507e-10
3.324420504e-13
2.072290466e-17
1.52108587e-21
1.963033863e-25
1.646077047e-10
1.647418509e-10
1.647841416e-10
1.646483763e-10
1.608606544e-10
1.567931553e-10
1.52292888e-10
1.473579143e-10
1.364565665e-10
1.391730325e-10
1.455615584e-10
1.489458279e-10
1.492026386e-10
1.491340883e-10
1.453702053e-10
1.410419968e-10
1.376843247e-10
8.660295954e-11
4.244233104e-14
2.608337331e-18
1.976007238e-22
2.319209377e-26
1.643663689e-10
1.645082463e-10
1.644758355e-10
1.610506892e-10
1.576459671e-10
1.538525258e-10
1.494865588e-10
1.442168474e-10
1.333290995e-10
1.363796171e-10
1.425197104e-10
1.459664086e-10
1.462110244e-10
1.460486088e-10
1.424434784e-10
1.381064784e-10
8.945022284e-11
9.098929286e-13
6.831706075e-17
4.483019992e-21
3.463811631e-25
3.001206788e-29
1.641335026e-10
1.642645248e-10
1.642507267e-10
1.607629211e-10
1.575083206e-10
1.515364503e-10
1.459140337e-10
1.232157642e-10
1.087070962e-10
1.235855454e-10
1.29581394e-10
1.308242341e-10
1.420284484e-10
1.398439383e-10
8.743931895e-11
1.948409834e-11
8.440730841e-13
2.365592883e-16
3.722346214e-20
2.930390424e-24
2.429210396e-28
1.763829001e-32
1.639068971e-10
1.64012804e-10
1.640061856e-10
1.606881444e-10
1.574736142e-10
1.539727254e-10
5.35944302e-13
3.20902765e-12
6.548859692e-11
1.098859789e-10
1.211001013e-10
1.15582689e-10
9.307259446e-11
1.397951917e-11
1.05254301e-12
2.331674009e-14
5.50218133e-17
6.200199943e-20
1.062154373e-23
1.108199325e-27
1.067140088e-31
5.786156953e-36
1.636901158e-10
1.637472823e-10
1.637319883e-10
1.60450364e-10
1.572409596e-10
1.506615341e-10
1.891434948e-13
1.941880037e-14
4.233768078e-12
3.508202044e-11
5.721526151e-11
5.683112146e-11
2.482822731e-12
1.173715346e-13
6.310802045e-15
5.546738897e-17
4.622989144e-20
1.770208362e-23
2.91459841e-27
3.751441221e-31
4.007514559e-35
1.696391229e-39
1.634847644e-10
1.634349295e-10
1.634143337e-10
1.601450171e-10
1.569415044e-10
1.133973854e-11
8.328865837e-15
0
0
2.980741903e-13
1.973647944e-12
3.860984385e-13
5.41764416e-14
2.453478787e-15
4.377877201e-17
1.81546313e-19
1.192924898e-22
2.310075473e-26
2.651038026e-30
2.946112517e-34
2.533354304e-38
7.945300755e-43
1.632848165e-10
1.630674711e-10
1.630392133e-10
1.597784e-10
1.546072377e-10
7.234906571e-12
0
9.767970989e-20
0
2.768961441e-15
3.263571562e-14
2.482031056e-15
6.147348435e-16
3.132134745e-17
2.820150537e-19
5.898460215e-22
3.104952105e-25
5.815979049e-29
6.269490851e-33
6.004962151e-37
3.432209525e-41
4.969003232e-46
1.630620088e-10
1.624307568e-10
1.624224072e-10
1.591739589e-10
1.526666336e-10
2.021774151e-12
1.421223411e-16
0
2.672773336e-19
2.389312802e-17
3.290847036e-16
2.301394538e-17
6.17666795e-18
2.552096194e-19
1.309576209e-21
1.700237997e-24
7.61371988e-28
1.281361396e-31
1.367672212e-35
1.1064125e-39
4.755705516e-44
5.50673264e-49
1.627636562e-10
1.617260044e-10
1.616337418e-10
1.58401067e-10
1.388976627e-10
9.51416821e-13
1.838369509e-16
0
1.961011808e-21
2.26536076e-19
2.999288758e-18
2.194850539e-19
5.605390796e-20
1.589040611e-21
4.970709087e-24
4.621648241e-27
1.766562648e-30
2.507671027e-34
2.448712905e-38
1.419845641e-42
2.406418697e-47
4.337917543e-53
1.621626968e-10
1.607540111e-10
1.604588038e-10
1.572496277e-10
1.282337494e-10
1.559643231e-13
0
5.469323195e-20
0
2.231178908e-21
2.721232842e-20
2.104750321e-21
5.425742663e-22
9.102649334e-24
1.781552023e-26
1.195360592e-29
3.540619736e-33
4.112261261e-37
3.116369858e-41
1.198444631e-45
1.390087149e-50
1.040821025e-56
1.606747109e-10
1.581648439e-10
1.579346278e-10
1.547759352e-10
5.437671859e-11
3.196077901e-14
2.161890902e-18
0
4.689357114e-25
2.730464272e-23
2.669398904e-22
1.914293389e-23
1.686034156e-24
2.935762889e-26
4.272709773e-29
2.108172413e-32
4.449732356e-36
4.049927359e-40
1.925980544e-44
2.408243395e-49
1.557808877e-55
1.863012819e-61
1.589469674e-10
1.559906631e-10
1.557249385e-10
1.526104398e-10
3.428082186e-11
1.27779481e-14
0
2.894655464e-22
5.797418176e-26
1.179833509e-25
7.850598091e-25
9.571573372e-26
1.507547337e-27
5.966035947e-29
6.442453906e-32
2.271237116e-35
3.267887521e-39
2.070060007e-43
5.764227607e-48
4.697223877e-53
2.925494374e-58
3.073291521e-63
1.576847652e-10
1.535909789e-10
1.532829071e-10
1.50217249e-10
4.724006822e-12
2.87218899e-16
3.461484824e-21
7.06924684e-25
5.976412696e-28
8.084490573e-29
9.46468299e-28
3.320320351e-28
2.725954381e-30
7.615538328e-32
6.119963515e-35
1.51689002e-38
1.402496078e-42
5.674156789e-47
8.164626671e-52
5.300907188e-57
6.544781402e-62
1.061540654e-66
1.560767979e-10
1.508506902e-10
1.505157749e-10
1.475054594e-10
1.956914311e-13
6.327831441e-17
2.708448384e-20
1.16031736e-23
8.13021619e-27
5.947330511e-30
1.966781746e-30
7.994775977e-31
4.441163607e-33
6.119709048e-35
3.546446559e-38
5.886921114e-42
3.160839694e-46
4.529241959e-51
3.201257818e-56
4.239318457e-61
5.608477211e-66
7.67085315e-71
1.52411178e-10
1.480992857e-10
1.478374041e-10
1.44880656e-10
9.289174709e-14
5.758174938e-17
3.85099429e-20
2.721010702e-23
2.299790693e-26
1.93007864e-29
1.954294856e-32
1.263352816e-33
4.837075944e-36
2.954036802e-38
1.139335045e-41
1.115612455e-45
2.610433211e-50
2.079796737e-55
2.540673318e-60
3.359208499e-65
4.413463679e-70
7.567336775e-75
1.4974218e-10
1.45230118e-10
1.449756637e-10
1.420761504e-10
9.183572115e-14
7.97010311e-17
6.666846218e-20
5.507301181e-23
4.742838859e-26
3.831406432e-29
2.745342845e-32
1.699400711e-35
9.364466262e-39
9.35841891e-42
1.971695871e-45
1.11380959e-49
2.441666877e-54
3.754604028e-59
5.249650397e-64
6.388098277e-69
7.584873662e-74
1.315707233e-78
1.456449672e-10
1.416950699e-10
1.415451176e-10
1.387142153e-10
1.776101959e-13
1.952773751e-16
1.833210128e-19
1.561438544e-22
1.270543699e-25
9.092622869e-29
5.346109112e-32
2.34060151e-35
6.912062476e-39
1.263902803e-42
9.949413975e-47
9.582363149e-52
7.299293173e-57
1.101624806e-61
1.496609659e-66
1.732433964e-71
1.883468928e-76
3.066262176e-81
1.413325313e-10
1.392095185e-10
1.388532209e-10
1.360761564e-10
1.709124322e-13
2.184712439e-16
2.240181664e-19
1.929051736e-22
1.496913698e-25
9.720772747e-29
4.90873224e-32
1.736095818e-35
3.787189663e-39
3.934533796e-43
1.377154347e-47
2.741980429e-52
4.477698483e-57
6.970754955e-62
9.679778082e-67
1.118125473e-71
1.143378364e-76
1.873446798e-81
1.377697753e-10
1.353716537e-10
1.351757748e-10
1.324722593e-10
1.575298361e-13
2.155750848e-16
2.382842361e-19
2.080399009e-22
1.5903141e-25
9.933996579e-29
4.691723915e-32
1.508098755e-35
3.011683382e-39
3.332084428e-43
1.22438783e-47
1.014399192e-52
1.714824701e-57
2.763506754e-62
3.945206419e-67
4.578752081e-72
4.27119723e-77
6.683905388e-82
1.363649471e-10
1.330321867e-10
1.326748935e-10
1.300213956e-10
2.506691529e-13
5.375944151e-16
6.279761871e-19
5.83828539e-22
4.481981464e-25
2.799419617e-28
1.392243989e-31
4.62058953e-35
8.982218563e-39
1.138528013e-42
7.537188111e-47
1.336377646e-51
2.407247198e-56
4.011916981e-61
5.888178906e-66
6.959771229e-71
6.114221458e-76
8.918359659e-81
1.319369154e-10
1.300953346e-10
1.298221357e-10
1.27225693e-10
1.932273965e-13
3.435571608e-16
4.155718035e-19
3.826838361e-22
2.976572219e-25
1.888195216e-28
9.288176446e-32
3.012411723e-35
5.460944514e-39
3.6633874e-43
4.846273874e-48
8.916993595e-53
1.610738475e-57
2.830290699e-62
4.265455304e-67
5.084484458e-72
4.722097487e-77
6.751103512e-82
1.307594277e-10
1.292223096e-10
1.287976168e-10
1.262216645e-10
1.647351567e-13
2.541359285e-16
3.123740377e-19
2.789170055e-22
2.195458127e-25
1.415345035e-28
6.724645571e-32
2.108665959e-35
4.893180381e-39
5.902434019e-43
8.412074999e-48
1.591964361e-52
2.960120437e-57
5.266753421e-62
8.127734977e-67
9.775742311e-72
8.924573769e-77
1.190512671e-81
1.305215444e-10
1.274270289e-10
1.26617412e-10
1.240850638e-10
1.09200442e-13
1.457285279e-16
1.778809853e-19
1.584678683e-22
1.256953675e-25
8.216750172e-29
3.955253684e-32
1.307154317e-35
3.210587207e-39
5.028353542e-43
2.823187914e-47
5.477280947e-52
1.044620626e-56
1.91432976e-61
3.0253483e-66
3.67527252e-71
3.298515991e-76
4.078711554e-81
1.3146631e-10
1.236833223e-10
1.226898557e-10
1.202360586e-10
1.205667032e-13
1.450768214e-16
1.734796107e-19
1.531019344e-22
1.218175682e-25
8.058990297e-29
3.948276452e-32
1.430726655e-35
3.483873718e-39
3.311234297e-43
8.460071953e-48
1.674470798e-52
3.254052304e-57
6.115859129e-62
9.92360085e-67
1.223966829e-71
1.082148753e-76
1.211848352e-81
1.326538361e-10
1.214652518e-10
1.197958443e-10
1.173999274e-10
8.733179822e-14
1.059921443e-16
1.249922852e-19
1.131326523e-22
1.56438924e-25
1.977001688e-28
1.109981727e-31
4.903508111e-35
1.546697499e-38
2.249164156e-42
4.741404902e-47
9.503348315e-52
1.863148797e-56
3.565381233e-61
5.949644182e-66
7.495396086e-71
6.557932732e-76
6.25702617e-81
1.270164705e-10
1.163757986e-10
1.149420387e-10
1.12643198e-10
2.136243243e-13
5.56064985e-16
6.463407852e-19
5.947127266e-22
8.493147633e-25
1.117278876e-27
7.574445229e-31
4.154544989e-34
1.248001203e-37
1.577182504e-41
1.987892481e-46
3.998994756e-51
7.82842758e-56
1.512486742e-60
2.589988092e-65
3.341297604e-70
2.909196233e-75
2.29077034e-80
1.240341365e-10
1.127821207e-10
1.112153358e-10
1.08991029e-10
1.038118352e-13
1.213846157e-16
1.427840509e-19
1.368716229e-22
1.837638547e-25
2.186726446e-28
1.664470057e-31
1.006675686e-34
2.358722895e-38
1.971096065e-42
5.483209666e-47
1.094869818e-51
2.122622225e-56
4.107013823e-61
7.163169879e-66
9.432757915e-71
8.219943209e-76
7.157333509e-81
1.164946622e-10
1.070688238e-10
1.057063357e-10
1.03592209e-10
1.111213911e-13
1.555498187e-16
2.055569098e-19
2.751293601e-22
4.418234369e-25
4.726314357e-28
3.62594731e-31
2.81101442e-34
1.165895456e-37
1.066086e-41
2.5230522e-46
4.951821655e-51
9.484398902e-56
1.829114051e-60
3.215571198e-65
4.289565644e-70
3.740440075e-75
2.890923371e-80
1.162550075e-10
1.028224272e-10
1.011289396e-10
9.910636084e-11
1.283143714e-13
2.454292611e-16
3.708692253e-19
6.036427006e-22
1.107854694e-24
1.178677326e-27
8.964510083e-31
5.983201622e-34
2.143697037e-37
2.539308141e-41
6.377229033e-46
1.224881587e-50
2.334631509e-55
4.497546247e-60
7.889703284e-65
1.055262969e-69
9.226953377e-75
5.867164601e-80
1.035832392e-10
9.498628981e-11
9.382143851e-11
9.194500974e-11
1.050451562e-13
1.753081955e-16
2.714249784e-19