/*--------------------------------*- C++ -*----------------------------------*\
  =========                 |
  \\      /  F ield         | OpenFOAM: The Open Source CFD Toolbox
   \\    /   O peration     | Website:  https://openfoam.org
    \\  /    A nd           | Version:  9
     \\/     M anipulation  |
\*---------------------------------------------------------------------------*/
FoamFile
{
    format      ascii;
    class       volScalarField;
    location    "10";
    object      F2.gas;
}
// * * * * * * * * * * * * * * * * * * * * * * * * * * * * * * * * * * * * * //

dimensions      [0 0 0 0 0 0 0];

internalField   nonuniform List<scalar> 
2215
(
0.0007695115072
0.0007660606092
0.0007572203054
0.0007406438524
0.0007146067322
0.0006782513058
0.0006315802416
0.0005750112906
0.0005086432924
0.0004313884017
0.0003401595035
0.0002287041015
8.283681728e-05
3.269949372e-05
1.360310559e-05
5.93921674e-06
2.79364246e-06
1.494658756e-06
9.844481762e-07
8.507139828e-07
9.308529286e-07
1.107653293e-06
0.0007719525953
0.0007689721795
0.0007604310538
0.000743609381
0.0007167584923
0.0006792445944
0.0006314776312
0.0005744102528
0.0005087333409
0.0004342655438
0.0003493952583
0.0002535100275
0.0001522838907
8.398363637e-05
4.414864407e-05
2.280388204e-05
1.201898934e-05
6.819595662e-06
4.480819214e-06
3.634535912e-06
3.592903611e-06
3.880328324e-06
0.0007755746942
0.0007727996934
0.0007641487504
0.0007466956941
0.0007187476408
0.000679859721
0.0006307640324
0.0005729283341
0.0005077186955
0.0004356799157
0.0003572542789
0.0002727703179
0.0001883755582
0.0001193490727
7.091984833e-05
4.062798836e-05
2.326022231e-05
1.39836411e-05
9.423040097e-06
7.542748807e-06
7.155663291e-06
7.418391886e-06
0.0007797355318
0.0007769927532
0.0007680627321
0.0007498660622
0.000720721602
0.0006803253082
0.0006296905595
0.0005707678967
0.000505574498
0.0004354773102
0.0003612951697
0.0002845565326
0.0002091917967
0.0001432623507
9.233484428e-05
5.716731614e-05
3.507513519e-05
2.228899508e-05
1.553816285e-05
1.250521638e-05
1.16501597e-05
1.181389283e-05
0.000784167117
0.0007813905544
0.0007721252622
0.0007531356429
0.0007227383545
0.0006807454575
0.0006284166283
0.0005681531457
0.0005025161337
0.0004334924649
0.0003623813889
0.0002908375582
0.0002215372538
0.0001593853525
0.0001088041312
7.154617414e-05
4.653088699e-05
3.111877779e-05
2.250246697e-05
1.8387432e-05
1.704781029e-05
1.708739902e-05
0.0007887755247
0.000785951564
0.0007763383261
0.0007565390322
0.0007248691708
0.0006812462927
0.0006271410712
0.000565395403
0.0004989950578
0.000430444263
0.0003614647598
0.0002935228633
0.0002287439333
0.0001702397897
0.0001212758099
8.366516337e-05
5.717317308e-05
4.005120422e-05
3.004077339e-05
2.504800997e-05
2.329479495e-05
2.322685706e-05
0.0007935389546
0.0007906737137
0.0007807146924
0.000760108538
0.0007271884399
0.0006819864984
0.0006261865451
0.0005628414631
0.0004954787955
0.0004269640978
0.0003593510189
0.0002940990668
0.0002328153181
0.0001775983679
0.0001307568266
9.381474109e-05
6.690074965e-05
4.887528124e-05
3.797976882e-05
3.238547557e-05
3.03507408e-05
3.022487967e-05
0.0007984589506
0.0007955602247
0.0007852578496
0.0007638618878
0.0007297509259
0.0006830816999
0.000625799815
0.0005609046078
0.0004924468956
0.0004236906488
0.0003569275221
0.0002936647833
0.0002351375041
0.000182790614
0.0001381902633
0.0001024722458
7.585388881e-05
5.757175966e-05
4.626548875e-05
4.037075975e-05
3.822280179e-05
3.811281271e-05
0.0008035368188
0.0008006048391
0.0007899568412
0.0007678074695
0.0007326088539
0.0006846172314
0.0006259163273
0.0005600522464
0.000490622894
0.0004214276784
0.0003550992248
0.0002932090701
0.0002368210014
0.0001869087095
0.0001444571009
0.0001102141224
8.434206174e-05
6.628529835e-05
5.497353819e-05
4.907156316e-05
4.69944165e-05
4.699063892e-05
0.0008087622143
0.00080578615
0.0007947879653
0.0007719511368
0.000735840012
0.0006868110123
0.000627035154
0.0005600950881
0.0004900852884
0.000420618154
0.0003545182441
0.0002935950134
0.000238858181
0.0001909463884
0.0001504229458
0.0001176974145
9.281355458e-05
7.531150803e-05
6.431675244e-05
5.867265072e-05
5.684932561e-05
5.705248883e-05
0.0008141083802
0.0008110670262
0.000799717555
0.0007762992387
0.0007395284811
0.0006898624417
0.0006295148345
0.0005620385589
0.0004915489528
0.0004218842827
0.0003560071558
0.0002958062571
0.0002422821421
0.0001959231546
0.0001570106087
0.0001256865032
0.0001018612209
8.510191476e-05
7.465873546e-05
6.94927099e-05
6.809420923e-05
6.860777871e-05
0.0008195327385
0.0008164000514
0.0008047147299
0.0007808780445
0.0007437871793
0.0006939999641
0.0006337178838
0.0005663704477
0.0004959784194
0.0004264072328
0.0003607410645
0.0003010070082
0.0002482790225
0.0002029992928
0.0001652909682
0.0001351124099
0.0001122586568
9.628854151e-05
8.653513546e-05
8.200322516e-05
8.117352268e-05
8.20951549e-05
0.0008249809847
0.0008217355189
0.0008097649943
0.0007857506588
0.0007487819634
0.0006995195891
0.0006400927986
0.0005737109476
0.0005041661755
0.0004352074226
0.0003699559014
0.0003105761736
0.0002582843253
0.0002135903693
0.0001765889418
0.0001471568355
0.0001250217939
0.0001097315786
0.0001006735309
9.684221351e-05
9.66780448e-05
9.808756322e-05
0.0008303931711
0.0008270302195
0.0008148830813
0.0007910272761
0.00075474159
0.0007067966108
0.0006491914717
0.0005848198364
0.0005171078699
0.0004495377683
0.0003851501265
0.0003262005304
0.0002740836606
0.0002294814156
0.0001925964109
0.0001633489258
0.0001414812492
0.0001265629396
0.0001180282138
0.00011482204
0.0001153437291
0.0001172852873
0.0008357108256
0.0008322529297
0.0008201243419
0.0007968606094
0.000761954838
0.0007162810937
0.0006616569863
0.0006005695031
0.0005359479951
0.0004708493793
0.0004080846162
0.0003499043761
0.0002978692935
0.0002529075946
0.0002154639599
0.0001856510919
0.0001633487609
0.0001482259439
0.0001397869019
0.0001369420633
0.0001380348333
0.0001404928908
0.0008408849944
0.0008373834236
0.0008255840425
0.0008034426237
0.0007707494097
0.0007284611831
0.0006781634913
0.0006218599049
0.0005618700703
0.0005006686447
0.0004406627745
0.0003839489717
0.0003321729507
0.0002865270105
0.000247807295
0.0002164829212
0.0001927411326
0.0001764880937
0.0001673736229
0.0001643538238
0.0001657083783
0.0001685771714
0.0008458823975
0.0008424499302
0.0008313399772
0.0008109613041
0.0007814321875
0.0007437652947
0.0006992703662
0.0006494175429
0.0005958368995
0.0005402839839
0.0004845806693
0.00043047552
0.0003795372991
0.0003331509066
0.0002925090879
0.0002585883406
0.0002320931679
0.0002133786272
0.0002023979257
0.0001983034806
0.0001993545916
0.0002024036313
0.0008506872393
0.0008474769995
0.0008374684443
0.000819557786
0.000794187754
0.0007623882697
0.0007251611166
0.0006834284167
0.0006381042616
0.0005901404145
0.0005406186222
0.0004907341868
0.0004417455693
0.00039504384
0.0003521426828
0.0003146025569
0.0002838556254
0.0002609850393
0.0002465156123
0.0002400314715
0.0002399086716
0.0002427526099
0.0008552864023
0.0008524758296
0.0008440028639
0.0008292498199
0.0008089348658
0.0007840524182
0.0007552815072
0.0007230223753
0.0006875240851
0.0006489497583
0.0006075614945
0.0005638500907
0.0005185134375
0.0004726552866
0.000427858411
0.0003861690046
0.0003498595728
0.0003210292657
0.0003011582456
0.0002906051724
0.0002881259989
0.0002902121565
0.0008596616535
0.0008574302336
0.0008508868515
0.0008398397003
0.0008251702607
0.0008077675685
0.0007879942561
0.0007657955611
0.0007408979018
0.000712836663
0.0006811090158
0.0006454879575
0.0006059471296
0.0005629803984
0.0005178135186
0.0004725994928
0.0004302999009
0.0003941792602
0.000367095967
0.0003506588407
0.0003444162498
0.0003450311829
0.0008637877091
0.0008622851302
0.0008579435414
0.0008508591833
0.0008419010094
0.0008317556732
0.0008205057665
0.0008077754019
0.0007929592288
0.0007752642129
0.0007536899433
0.0007274433862
0.0006958011194
0.0006584537473
0.0006158133114
0.0005694818256
0.0005225339968
0.0004791689766
0.0004438545397
0.0004200189427
0.0004086152024
0.0004069425133
0.0008676297633
0.0008669422229
0.0008648750759
0.0008616058888
0.0008577701713
0.0008537497143
0.0008493961462
0.0008442039491
0.0008375306321
0.0008285803535
0.0008162211144
0.0007994131561
0.0007769718926
0.0007478591503
0.0007114819738
0.0006682092579
0.0006202719148
0.000571970042
0.0005290939923
0.0004972967223
0.0004797170227
0.0004749629535
0.0008711472715
0.0008712735288
0.0008713105293
0.0008712920938
0.0008714000714
0.0008716521398
0.0008717578693
0.0008713011051
0.0008698704875
0.0008669886846
0.0008616268585
0.0008529190163
0.0008395523829
0.0008200146603
0.0007930538857
0.0007575644478
0.0007140446831
0.000665587283
0.0006181908992
0.0005795158187
0.000555604136
0.0005471967105
0.0008742978204
0.0008751466394
0.0008769423392
0.0008793042979
0.0008818953359
0.0008844303575
0.0008865967168
0.0008879414949
0.0008884448148
0.0008882603615
0.0008867577565
0.0008835039358
0.0008777318593
0.0008680311997
0.0008520489437
0.0008274975501
0.0007935562827
0.0007510447657
0.000704414929
0.0006620081457
0.0006328535009
0.0006207303257
0.0008770718061
0.0008784865345
0.0008815596317
0.0008854157454
0.0008891940513
0.0008924171185
0.0008948738015
0.0008965409712
0.0008974767143
0.0008978448993
0.0008978336744
0.0008970053902
0.0008951094133
0.0008913921699
0.0008845564666
0.0008723644937
0.0008514209187
0.0008197962572
0.0007800208087
0.000738797261
0.000706894508
0.0006917593144
0.000879474096
0.0008812706945
0.0008851523913
0.0008897863403
0.0008939075344
0.0008970058529
0.0008990906647
0.0009003900335
0.0009011652633
0.000901646982
0.0009018766373
0.0009019299744
0.0009016311988
0.0009006800667
0.0008984874944
0.0008937655307
0.0008843749143
0.0008669335892
0.0008384034228
0.000803681504
0.0007726870227
0.0007560552245
0.0008815268453
0.000883526353
0.0008878234873
0.0008927485883
0.0008967768725
0.0008994587621
0.0009010300832
0.0009018982836
0.0009023874276
0.000902719618
0.0009030028961
0.0009032863795
0.0009035146402
0.0009036039881
0.0009033450711
0.0009021188559
0.0008988636676
0.0008914958558
0.0008766267259
0.0008520752849
0.0008258595235
0.0008098003373
0.0008832641199
0.0008853104582
0.0008897221774
0.000894646092
0.0008984206221
0.0009006719598
0.0009017930304
0.0009023347921
0.0009026196592
0.0009028413789
0.0009030948637
0.0009034130174
0.0009037926528
0.0009042090639
0.0009045749373
0.000904727378
0.0009041012752
0.0009017747419
0.0008956569831
0.0008828272704
0.0008640376193
0.0008505678473
0.0008847264142
0.0008866947117
0.0008910066992
0.000895778799
0.0008993109034
0.000901165617
0.0009019664971
0.0009022815046
0.0009024084437
0.000902479656
0.000902627993
0.0009029059941
0.0009033500707
0.0009039599582
0.0009046586278
0.0009052889839
0.0009056040449
0.0009053337263
0.0009034719322
0.0008981047709
0.0008877512099
0.0008780802687
0.0008859571424
0.0008877567734
0.000891824219
0.0008963769295
0.0008996761437
0.000901295913
0.0009019219853
0.0009020828921
0.0009020769476
0.000902048414
0.0009020776731
0.0009022426495
0.0009025922994
0.0009031753205
0.0009040090527
0.0009050122852
0.0009059053646
0.0009063228244
0.0009061678169
0.0009044407931
0.0008998462794
0.0008942331127
0.0008870034893
0.0008885554238
0.0008922665684
0.0008964831689
0.0008996470548
0.0009012377362
0.0009017962859
0.0009018918268
0.0009018154942
0.0009017160692
0.0009016787833
0.0009017378769
0.0009019684532
0.000902437976
0.000903210695
0.0009042809801
0.0009055251906
0.0009065307463
0.0009069528688
0.0009067049955
0.0009050483236
0.0009023452452
0.0008878880283
0.0008891602967
0.000892416985
0.0008963653936
0.0008994555293
0.0009010740579
0.000901651967
0.0009017541761
0.0009016634671
0.0009015277623
0.0009014381352
0.0009014152555
0.0009015220999
0.0009018516206
0.000902514885
0.0009035581633
0.0009048909498
0.0009062804503
0.0009071488841
0.0009074509252
0.0009070297911
0.0009058937567
0.0008886285353
0.0008896289326
0.0008923831997
0.0008960409933
0.0008990331393
0.0009007576553
0.000901477833
0.0009016550379
0.0009015944479
0.0009014623711
0.0009013344173
0.0009012498293
0.0009012402158
0.0009014156314
0.0009019311292
0.0009028984325
0.0009042762179
0.0009058290447
0.0009071373869
0.0009077100331
0.0009077694131
0.0009073241681
0.0008892496161
0.0008900077212
0.0008922580953
0.0008954927094
0.0008983966721
0.000900281157
0.0009012075985
0.0009015302203
0.0009015484444
0.0009014536083
0.0009013210262
0.0009011832997
0.0009010857082
0.0009011168929
0.0009014691978
0.0009023175691
0.0009036871891
0.0009053483897
0.0009069031797
0.0009078059811
0.000908082708
0.0009079311535
0.0008898018279
0.0008903216251
0.0008920291313
0.0008948154131
0.0008975728393
0.0008996016419
0.0009007735197
0.0009013055701
0.0009014547687
0.000901429751
0.0009013276004
0.0009011716209
0.0009009986458
0.0009009169354
0.0009011150196
0.0009018312876
0.000903164633
0.0009049120953
0.0009066461103
0.0009078277333
0.0009082735851
0.000908253446
0.0008904398206
0.0008906673009
0.0008918051177
0.0008940673624
0.0008965817623
0.0008986856308
0.00090010136
0.000900892781
0.0009012442797
0.0009013316111
0.0009012860066
0.0009011486814
0.0009009394393
0.00090076377
0.0009008364933
0.000901425274
0.0009027037999
0.0009045036674
0.0009063820042
0.000907812594
0.0009084370347
0.0009085026582
0.0008915165048
0.0008913350951
0.0008918881123
0.0008933361864
0.0008954655861
0.000897526806
0.0008991343073
0.0009001997907
0.0009008090829
0.0009010815856
0.0009011252491
0.0009010407583
0.0009008371943
0.0009006113927
0.0009006022709
0.0009010897124
0.0009023257951
0.0009041643192
0.0009061463936
0.0009077623716
0.0009085699701
0.0009087178775
0.0008935804308
0.0008927906613
0.0008925173228
0.0008931602481
0.0008944710078
0.0008961925402
0.0008978437157
0.0008991477094
0.0009000391792
0.0009005606213
0.0009007773719
0.0009007678372
0.0009006336667
0.0009004105283
0.0009003843474
0.0009008053667
0.0009020339452
0.0009039384647
0.0009060074856
0.000907734645
0.0009086835641
0.0009089067879
0.0008972685102
0.000895908974
0.0008944502885
0.0008940009588
0.0008944705466
0.0008954210442
0.0008965818937
0.0008978406983
0.0008989310809
0.0008997137049
0.0009001636283
0.0009003164943
0.0009002734486
0.0009001333811
0.0009001468008
0.0009005864446
0.0009018841629
0.0009038417283
0.0009059530986
0.0009077309088
0.0009087912217
0.0009090765752
0.0009027798415
0.000901206049
0.0008989735972
0.0008970142109
0.0008959887858
0.0008959931534
0.0008963635472
0.0008970716857
0.0008978991039
0.0008987373415
0.0008993687307
0.0008997170288
0.0008998105395
0.0008997921327
0.0008998906839
0.000900457241
0.0009018420977
0.0009038316303
0.0009059771946
0.0009078208152
0.0009089125436
0.0009092354292
0.0009093122559
0.0009078369549
0.0009059925251
0.000903623639
0.0009010906026
0.0008988821793
0.0008976573741
0.0008974796886
0.0008976974782
0.0008981602575
0.0008986964807
0.0008991223605
0.0008993406774
0.0008994404807
0.0008996885701
0.0009004281379
0.0009019942091
0.0009040778761
0.0009062310521
0.0009080273696
0.0009090783048
0.0009093935161
0.0009148952029
0.000913743212
0.0009127516349
0.0009110765957
0.0009087081008
0.0009054676284
0.0009018659459
0.0008994136087
0.0008983842602
0.0008983176488
0.0008984777664
0.0008987628076
0.0008989972891
0.0008991920574
0.0008996130795
0.000900612542
0.0009024256836
0.0009045766407
0.0009066832648
0.0009083688101
0.0009093008702
0.0009095602187
0.0009171195457
0.000916276629
0.0009155969411
0.0009149463988
0.0009139311816
0.0009118090236
0.0009079865332
0.0009036868167
0.0009004306581
0.0008990761682
0.0008987029046
0.0008987620437
0.0008988966867
0.0008991491872
0.0008997516583
0.0009011305427
0.0009031824017
0.000905363586
0.0009073686256
0.0009088510533
0.0009095797859
0.0009097334353
0.000916864985
0.0009152481397
0.0009146121217
0.0009147368323
0.0009149861308
0.0009148666147
0.0009131327811
0.0009089340916
0.0009042367017
0.0009009185859
0.0008993973361
0.0008989673359
0.0008989872892
0.0008992819751
0.0009001864413
0.0009020789195
0.0009043034637
0.0009064380304
0.0009082509916
0.000909433822
0.0009098858161
0.0009098956741
0.0009133552153
0.0009111843316
0.0009109403482
0.0009114546624
0.0009124573989
0.0009143907548
0.0009148537331
0.0009131050117
0.0009087605982
0.0009039811
0.0009008940381
0.0008995366077
0.000899272077
0.0008996672502
0.000901059871
0.0009034742784
0.0009057660322
0.0009077532634
0.000909243649
0.0009100225256
0.0009101116492
0.0009099793801
0.0009092008348
0.0009082022157
0.0009081777579
0.000908794509
0.0009099655131
0.0009122327333
0.0009145934515
0.0009148446212
0.000912935409
0.0009078134628
0.0009033360249
0.0009007436005
0.0008999100544
0.0009004759369
0.0009025929765
0.0009053727189
0.0009075490087
0.0009091903314
0.0009101586518
0.00091033642
0.0009101871218
0.0009099564659
0.0009067659802
0.0009063325631
0.0009064920801
0.0009069291135
0.0009080920829
0.0009102768147
0.0009137678537
0.0009154518063
0.0009149770761
0.0009117595346
0.0009062440722
0.0009025811507
0.0009011174322
0.0009020561826
0.0009050930421
0.000907881369
0.000909553793
0.0009104215957
0.0009106032643
0.0009103903666
0.0009099988929
0.0009097702676
0.0009055651355
0.000905608817
0.0009058364894
0.0009062421238
0.0009071245275
0.0009098298622
0.0009146776172
0.0009166466658
0.0009164575429
0.0009145247221
0.0009095980957
0.0009049679672
0.0009031192753
0.0009048370318
0.0009089271697
0.0009107536908
0.0009110674782
0.0009109656134
0.0009106784361
0.0009099123948
0.0009094596875
0.0009093841065
0.0009051808199
0.0009054190574
0.0009057220986
0.0009060357853
0.0009065648829
0.000908996629
0.0009165124152
0.0009182947464
0.000918097486
0.0009167290552
0.0009128638166
0.0009078454539
0.0009064990155
0.0009095042693
0.000912343649
0.0009121858669
0.0009115916154
0.0009109189571
0.0009101825628
0.0009088375937
0.0009084607214
0.0009087210966
0.0009050772256
0.0009054364399
0.0009057795588
0.0009059701651
0.0009060609098
0.0009066266985
0.0008994738429
0.0009183104265
0.0009189274545
0.0009182758003
0.0009160618207
0.0009111940617
0.0009109405635
0.0009136087868
0.0009142052308
0.0009122494545
0.0009098896885
0.0009081292247
0.0009073717163
0.0009056077906
0.0009057919066
0.0009067685123
0.0009049818713
0.0009055880564
0.0009060167887
0.0009061723676
0.0009058816091
0.0008999900438
0.0008858167302
0.0009181631404
0.0009186463915
0.0009186231599
0.0009176547849
0.0009146765571
0.0009148130373
0.0009154574383
0.0009148344944
0.0008948700072
0.0008916918943
0.0008899666402
0.000889224282
0.0008874956348
0.0008876760685
0.000888633142
0.0009047943974
0.0009057721145
0.0009063233339
0.0009065420439
0.0009055690087
0.0008745188285
0.0008469178338
0.0008994067943
0.000918413173
0.0009184466497
0.0009180848484
0.0009167559926
0.0009165109706
0.0009160080808
0.0009157884789
0.0008974533568
0.000873548909
0.0008556873374
0.0008595188408
0.0008663569719
0.0008470811553
9.144163939e-08
0.0009044807557
0.0009059474924
0.0009066648901
0.0009069258248
0.0009055631121
0.0008779050975
0.0008498350681
0.0008757381295
0.0008992161258
0.0009181334903
0.0009180586207
0.0009174212298
0.0009167894827
0.0009154308246
0.0008971222363
0.0008625474242
0.0008398830723
0.0008217444892
8.48824723e-06
1.772561164e-07
9.370346556e-09
9.952922162e-12
0.0009040141097
0.0009061931212
0.0009070151386
0.0009071881756
0.0009020917528
0.0008752693028
0.0008483078413
0.000848032369
0.000877770044
0.0008979855949
0.0009174288266
0.0009171268412
0.0009154985221
0.0009150610498
0.0008967552248
0.0008632191818
0.0008422353217
0.0008230057519
7.018369373e-06
4.769544671e-10
4.21372214e-13
1.119395759e-15
0.0009033910987
0.0009066440327
0.0009075373035
0.000907394354
0.0008830458039
0.0008591145977
0.0008337864795
0.0008157938677
0.0008317760834
0.0008482164197
0.0008981327187
0.0009168648154
0.0009151379625
0.000914544198
0.0008918324645
0.0008681474339
0.0008483659418
0.0008020855407
1.996548427e-06
1.244552314e-10
9.135103151e-15
1.178990879e-18
0.0009025766268
0.000907435427
0.0009083963389
0.0009077145759
0.0008868096496
0.0008641631882
0.0008390190167
0.0008160949966
0.0008149214164
0.000831366352
0.000878606024
0.0008980647852
0.0008967234195
0.0008961491709
0.0008733610088
0.0008470714862
0.0008268113021
0.0005200476946
2.548634532e-07
1.566281618e-11
1.186565254e-15
1.392638204e-19
0.0009015578368
0.0009089614737
0.0009097939091
0.0008908000252
0.000871706885
0.000849482238
0.000824140558
0.0007980125745
0.0007952640482
0.0008147376778
0.0008602550893
0.0008801004258
0.0008787447569
0.0008776045417
0.000855775103
0.0008294341369
0.0005369699432
5.462208853e-06
4.101213235e-10
2.691278003e-14
2.079444556e-18
1.801761596e-22
0.0009003051581
0.0009115121124
0.0009127595109
0.0008934505574
0.0008753108452
0.0008378840875
0.0008044458729
0.0006869630428
0.0006470403741
0.0007391953503
0.0007796216368
0.00078570585
0.0008534279216
0.0008402281586
0.0005252592319
0.0001170154367
5.066983028e-06
1.420071278e-09
2.23453573e-13
1.759124937e-17
1.458268801e-21
1.058842393e-25
0.0008987726228
0.0009161040899
0.0009177573505
0.0008991953153
0.0008812078126
0.0008616170233
3.059142371e-06
2.03390524e-05
0.000390537492
0.0006571000485
0.0007280171365
0.0006940065462
0.0005587278797
8.394128288e-05
6.322410141e-06
1.400277908e-07
3.303257528e-10
3.721996037e-13
6.376114569e-17
6.652504393e-21
6.406016542e-25
3.473420493e-29
0.000896525521
0.0009243448409
0.0009263890748
0.0009078396989
0.0008896809401
0.0008524541154
1.070097444e-06
1.163639772e-07
2.524906637e-05
0.0002097948573
0.000343940689
0.0003412292291
1.488752954e-05
7.034877375e-07
3.790136097e-08
3.330903673e-10
2.776012824e-13
1.062766991e-16
1.749737233e-20
2.252072119e-24
2.405767988e-28
1.018366394e-32
0.0008938632237
0.00093660813
0.0009394874431
0.0009206895159
0.0009022710095
6.52686882e-05
4.800489139e-08
0
0
1.783102277e-06
1.186375805e-05
2.318215482e-06
3.248388857e-07
1.470059232e-08
2.627814319e-10
1.08996874e-12
7.162123802e-16
1.386917523e-19
1.591600537e-23
1.768726462e-27
1.520905475e-31
4.769977163e-36
0.0008913912408
0.0009559125205
0.0009600067945
0.0009408062661
0.0009104106135
4.259681207e-05
0
5.925020897e-13
0
1.657090388e-08
1.961712577e-07
1.490168868e-08
3.68563271e-09
1.87645885e-10
1.691904793e-12
3.539760397e-15
1.863421342e-18
3.490483803e-22
3.762707996e-26
3.603988872e-30
2.059921952e-34
2.982268436e-39
0.000890798248
0.0009964678834
0.0009998841744
0.0009798864901
0.0009397885377
1.243726913e-05
8.742078473e-10
0
1.596562282e-12
1.430494055e-10
1.978062263e-09
1.381591305e-10
3.702848068e-11
1.528846863e-12
7.852626548e-15
1.019792026e-17
4.566974456e-21
7.686264986e-25
8.20418153e-29
6.637098063e-33
2.852854442e-37
3.303382016e-42
0.0008996333017
0.001046422022
0.001056707901
0.001035573743
0.0009083844537
6.219715947e-06
1.201786345e-09
0
1.192215197e-14
1.356780079e-12
1.802764624e-11
1.317489111e-12
3.359977196e-13
9.518782558e-15
2.979117421e-17
2.770527255e-20
1.05906096e-23
1.503410535e-27
1.468103527e-31
8.512726463e-36
1.44279368e-40
2.600874734e-46
0.0009425226218
0.001115882632
0.00114296288
0.001120103622
0.0009136915035
1.112178373e-06
0
3.899010205e-13
0
1.3366929e-14
1.635587708e-13
1.263246045e-14
3.251534991e-15
5.452828037e-17
1.067394305e-19
7.162793963e-23
2.121683002e-26
2.464309027e-30
1.867557662e-34
7.182066738e-39
8.330547968e-44
6.237485305e-50
0.00100851554
0.001307667056
0.001333959744
0.001307280549
0.0004597742058
2.700381937e-07
1.816900483e-11
0
3.187142196e-18
1.636295098e-16
1.604359341e-15
1.148908991e-16
1.010420232e-17
1.75855903e-19
2.559571819e-22
1.262985373e-25
2.665857666e-29
2.426383402e-33
1.153907475e-37
1.442865528e-42
9.33354128e-49
1.11623209e-54
0.001142044662
0.001489760148
0.001520402163
0.00148999412
0.0003346244676
1.247545193e-07
0
2.823804207e-15
5.592740795e-19
7.071974153e-19
4.718340853e-18
5.74425946e-19
9.03510955e-21
3.573651066e-22
3.859118198e-25
1.36054159e-28
1.95759597e-32
1.240065253e-36
3.453076942e-41
2.813886584e-46
1.752526777e-51
1.841064686e-56
0.001241273619
0.00168058316
0.001716662759
0.001682329504
5.291350464e-05
3.231135031e-09
3.502852856e-14
7.225923033e-18
6.153246392e-21
4.860934578e-22
5.688371989e-21
1.992561046e-21
1.633929443e-23
4.561684843e-25
3.665854583e-28
9.086255546e-32
8.401095197e-36
3.398901069e-40
4.890745865e-45
3.17534015e-50
3.920453733e-55
6.358849757e-60
0.001336896249
0.001907834162
0.001952016323
0.001912975997
2.53449837e-06
8.191399194e-10
3.505980934e-13
1.502035554e-16
1.052528847e-19
7.59373093e-23
1.184994512e-23
4.797636355e-24
2.662395779e-26
3.665757976e-28
2.124324449e-31
3.526270871e-35
1.893349309e-39
2.713033681e-44
1.917571836e-49
2.539382475e-54
3.359526947e-59
4.594925235e-64
0.001383549126
0.00217974731
0.002237613132
0.002192860869
1.40572715e-06
8.712609432e-10
5.826439889e-13
4.116772025e-16
3.479600563e-19
2.920377414e-22
2.613404505e-25
7.689918442e-27
2.906524834e-29
1.769810528e-31
6.82521724e-35
6.682935318e-39
1.563729807e-43
1.245856542e-48
1.521925591e-53
2.0122399e-58
2.643752566e-63
4.532973574e-68
0.001439176211
0.002584936325
0.002664163814
0.002610880538
1.687527096e-06
1.464449827e-09
1.224946734e-12
1.011895737e-15
8.714582001e-19
7.040081895e-22
5.043759109e-25
2.970820329e-28
1.331726148e-31
7.312352526e-35
1.348067249e-38
7.336352695e-43
1.591899469e-47
2.43561854e-52
3.390475586e-57
4.109507936e-62
4.85739952e-67
8.368192889e-72
0.001626353298
0.003166225838
0.003275637083
0.003210124341
4.109843696e-06
4.518225454e-09
4.241251598e-12
3.61225734e-15
2.939158557e-18
2.103317514e-21
1.236610576e-24
5.413630197e-28
1.598438155e-31
2.920542073e-35
2.297740305e-39
2.210826311e-44
1.67792838e-49
2.523805176e-54
3.418413016e-59
3.94647254e-64
4.276912628e-69
6.919761089e-74
0.002164243516
0.003926457813
0.00405865832
0.003977485153
4.9934597e-06
6.380579885e-09
6.54068355e-12
5.630860119e-15
4.36860389e-18
2.836494284e-21
1.432189062e-24
5.06483491e-28
1.104782844e-31
1.147696844e-35
4.017009393e-40
7.998013875e-45
1.306082458e-49
2.033264066e-54
2.823435593e-59
3.261382764e-64
3.335029525e-69
5.464467991e-74
0.00275784646
0.004833404046
0.004999844192
0.004899847308
5.825202688e-06
7.968321563e-09
8.805270554e-12
7.686367523e-15
5.875302975e-18
3.670077285e-21
1.733425775e-24
5.572185458e-28
1.112812652e-31
1.231266682e-35
4.524395017e-40
3.748628948e-45
6.337343916e-50
1.021342244e-54
1.458144334e-59
1.692361775e-64
1.578723668e-69
2.470659905e-74
0.003590426104
0.005945304212
0.006145081857
0.006022180219
1.160548765e-05
2.488475153e-08
2.90647755e-11
2.702138286e-14
2.074408765e-17
1.295676035e-20
6.443891524e-24
2.138619235e-27
4.157387715e-31
5.269604021e-35
3.488536392e-39
6.185328682e-44
1.114176438e-48
1.85688478e-53
2.725296777e-58
3.221273556e-63
2.829916927e-68
4.127785426e-73
0.004665014384
0.00725630528
0.007445455785
0.00729654667
1.107185464e-05
1.967345274e-08
2.37879883e-11
2.189451897e-14
1.702377921e-17
1.079655381e-20
5.310164114e-24
1.722100821e-27
3.121756591e-31
2.09410302e-35
2.770135152e-40
5.096720344e-45
9.20613626e-50
1.617581782e-54
2.437737163e-59
2.905749709e-64
2.698601593e-69
3.857961071e-74
0.005477118433
0.00813699992
0.008531833853
0.008361197176
1.090859291e-05
1.68226206e-08
2.067326656e-11
1.845373659e-14
1.452294862e-17
9.361602613e-21
4.447732266e-24
1.39467637e-27
3.236438692e-31
3.90403699e-35
5.564117838e-40
1.05302139e-44
1.958052717e-49
3.483923121e-54
5.376551217e-59
6.46681307e-64
5.903814174e-69
7.875688265e-74
0.005650317954
0.01091937405
0.0114518438
0.01122280693
9.864893047e-06
1.314382547e-08
1.602836995e-11
1.42718813e-14
1.13163466e-17
7.395980407e-21
3.559802038e-24
1.176440952e-27
2.889467213e-31
4.525438573e-35
2.540829514e-39
4.929486362e-44
9.401480055e-49
1.722881188e-53
2.722793684e-58
3.307725443e-63
2.968649196e-68
3.670827103e-73
0.008149222313
0.01388305621
0.01451526713
0.01422496178
1.426080664e-05
1.715242599e-08
2.050483167e-11
1.809240213e-14
1.439741205e-17
9.525877247e-21
4.66789828e-24
1.691907682e-27
4.120811381e-31
3.916733953e-35
1.000731478e-39
1.98075558e-44
3.849360014e-49
7.234890987e-54
1.1739582e-58
1.447968623e-63
1.280207742e-68
1.433658504e-73
0.01016720245
0.01736362323
0.01819825189
0.01783428685
1.328185119e-05
1.612302359e-08
1.901565895e-11
1.721729363e-14
2.384948006e-17
3.016186376e-20
1.695317431e-23
7.495596056e-27
2.370405683e-30
3.447074312e-34
7.266894121e-39
1.456566596e-43
2.855706925e-48
5.46492155e-53
9.119663241e-58
1.148918315e-62
1.00523136e-67
9.591183062e-73
0.01354242994
0.02196702293
0.02296506209
0.02250576085
4.271985938e-05
1.112128289e-07
1.292775128e-10
1.189613973e-13
1.699219925e-16
2.235490685e-19
1.515687991e-22
8.313931725e-26
2.497696058e-29
3.156510142e-33
3.978514766e-38
8.003530004e-43
1.566780017e-47
3.027106373e-52
5.183654385e-57
6.687362684e-62
5.822556357e-67
4.584831622e-72
0.01758167769
0.02714073319
0.0282183024
0.02765393635
2.635543521e-05
3.076056348e-08
3.614237763e-11
3.462096241e-14
4.639921118e-17
5.518609661e-20
4.19932889e-23
2.539997703e-26
5.951309108e-30
4.973392427e-34
1.383526155e-38
2.762627257e-43
5.355996504e-48
1.036338145e-52
1.807537264e-57
2.380263606e-62
2.07423454e-67
1.806107559e-72
0.02314253028
0.03243819507
0.03365678491
0.03298364921
3.538225514e-05
4.952943185e-08
6.545526737e-11
8.76510161e-14
1.408083753e-16
1.50662305e-19
1.156244468e-22
8.973544543e-26
3.722135126e-29
3.403699954e-33
8.055463581e-38
1.58100876e-42
3.028198876e-47
5.840104051e-52
1.02669707e-56
1.369620906e-61
1.194294838e-66
9.230534528e-72
0.03037836692
0.03887866372
0.03997843119
0.03917886256
5.072257155e-05
9.701333439e-08
1.465991082e-10
2.386281357e-13
4.379781303e-16
4.660291958e-19
3.544823129e-22
2.366511699e-25
8.479261356e-29
1.004431157e-32
2.522544888e-37
4.84510323e-42
9.234841807e-47
1.779053054e-51
3.120870309e-56
4.174235322e-61
3.64985231e-66
2.320842943e-71
0.03578047356
0.04385007026
0.04498381124
0.04408413501
5.033398622e-05
8.394806464e-08
1.299249554e-10
1.902743211e-13
2.861233205e-16
3.770664818e-19
3.975695465e-22
2.074095491e-25
5.756476647e-29
8.447737619e-33