/*--------------------------------*- C++ -*----------------------------------*\
  =========                 |
  \\      /  F ield         | OpenFOAM: The Open Source CFD Toolbox
   \\    /   O peration     | Website:  https://openfoam.org
    \\  /    A nd           | Version:  9
     \\/     M anipulation  |
\*---------------------------------------------------------------------------*/
FoamFile
{
    format      ascii;
    class       volScalarField;
    location    "10";
    object      F2Be.gas;
}
// * * * * * * * * * * * * * * * * * * * * * * * * * * * * * * * * * * * * * //

dimensions      [0 0 0 0 0 0 0];

internalField   nonuniform List<scalar> 
2215
(
1.448561442e-07
1.441174669e-07
1.423230532e-07
1.390909177e-07
1.341354727e-07
1.273127722e-07
1.185978579e-07
1.080572185e-07
9.567271611e-08
8.121994735e-08
6.409490984e-08
4.311953755e-08
1.562412049e-08
6.170229603e-09
2.567868352e-09
1.121527097e-09
5.276630794e-10
2.82336441e-10
1.859306778e-10
1.606106689e-10
1.756709567e-10
2.089920766e-10
1.452363234e-07
1.445654403e-07
1.428061714e-07
1.395176514e-07
1.344114884e-07
1.273738301e-07
1.184873505e-07
1.078800433e-07
9.565139693e-08
8.17321854e-08
6.582291319e-08
4.779397937e-08
2.872543478e-08
1.584910822e-08
8.334754712e-09
4.306420185e-09
2.270213304e-09
1.288204733e-09
8.462795222e-10
6.861863616e-10
6.780578497e-10
7.321369211e-10
1.457993374e-07
1.451536088e-07
1.433642719e-07
1.399579226e-07
1.346590207e-07
1.273862653e-07
1.182658095e-07
1.075326442e-07
9.540973763e-08
8.197360882e-08
6.728825401e-08
5.141905627e-08
3.553291283e-08
2.252383218e-08
1.338937689e-08
7.672652175e-09
4.393550947e-09
2.641425835e-09
1.779644353e-09
1.424002512e-09
1.350396598e-09
1.39965861e-09
1.464436546e-07
1.457956916e-07
1.439497671e-07
1.404074587e-07
1.348975807e-07
1.273613026e-07
1.179729714e-07
1.070563708e-07
9.495485291e-08
8.189855348e-08
6.802633683e-08
5.363099577e-08
3.945605564e-08
2.703601372e-08
1.74323383e-08
1.079606034e-08
6.62508024e-09
4.210060238e-09
2.934365913e-09
2.360729047e-09
2.198473079e-09
2.228865282e-09
1.471272062e-07
1.464672261e-07
1.445567274e-07
1.408716201e-07
1.351419681e-07
1.273261159e-07
1.176428932e-07
1.06495011e-07
9.432848799e-08
8.149021447e-08
6.821190729e-08
5.480284173e-08
4.177896837e-08
3.007638628e-08
2.054066115e-08
1.351092103e-08
8.788370486e-09
5.877409671e-09
4.249163665e-09
3.470855412e-09
3.21680088e-09
3.223561196e-09
1.478360603e-07
1.471629227e-07
1.451870907e-07
1.413574905e-07
1.354062869e-07
1.273117529e-07
1.173138981e-07
1.059064902e-07
9.361430873e-08
8.088028849e-08
6.80149305e-08
5.529441683e-08
4.31305385e-08
3.212086132e-08
2.289312201e-08
1.579821261e-08
1.079740017e-08
7.563631071e-09
5.671923868e-09
4.727570292e-09
4.395125649e-09
4.381393984e-09
1.485681296e-07
1.478839456e-07
1.458443337e-07
1.418712267e-07
1.357005993e-07
1.273250749e-07
1.170240815e-07
1.053530354e-07
9.289869762e-08
8.018753948e-08
6.759181886e-08
5.538806307e-08
4.388923703e-08
3.350410556e-08
2.467973997e-08
1.771262732e-08
1.263288118e-08
9.228716083e-09
7.169795543e-09
6.111608462e-09
5.725748265e-09
5.700904965e-09
1.493252064e-07
1.486323222e-07
1.465304795e-07
1.424180045e-07
1.360396088e-07
1.274089143e-07
1.168496361e-07
1.049010602e-07
9.22697084e-08
7.953095442e-08
6.710805541e-08
5.528790745e-08
4.431588203e-08
3.447684761e-08
2.607843401e-08
1.934417262e-08
1.432117665e-08
1.086892041e-08
8.732469481e-09
7.617393773e-09
7.209952601e-09
7.187958223e-09
1.501090073e-07
1.49408393e-07
1.472448967e-07
1.430009599e-07
1.36434324e-07
1.275791657e-07
1.167957766e-07
1.046600587e-07
9.185818403e-08
7.905431705e-08
6.672898144e-08
5.518100827e-08
4.461965088e-08
3.524489161e-08
2.725528583e-08
2.080151809e-08
1.592058614e-08
1.251144132e-08
1.037412546e-08
9.257627467e-09
8.863424917e-09
8.861368391e-09
1.509192003e-07
1.502097727e-07
1.479844432e-07
1.436217315e-07
1.368968224e-07
1.278620434e-07
1.16889818e-07
1.046047945e-07
9.170986584e-08
7.886394627e-08
6.658907886e-08
5.522930133e-08
4.498669688e-08
3.599498968e-08
2.837317278e-08
2.220836866e-08
1.75155157e-08
1.421192087e-08
1.213480573e-08
1.106706677e-08
1.072074356e-08
1.075766694e-08
1.517526007e-07
1.510313346e-07
1.487444067e-07
1.442828044e-07
1.374453533e-07
1.283048106e-07
1.172388467e-07
1.048624741e-07
9.189891248e-08
7.903731217e-08
6.682244043e-08
5.561292349e-08
4.560923106e-08
3.691786908e-08
2.96051861e-08
2.370829626e-08
1.921739645e-08
1.605526221e-08
1.408285436e-08
1.310562842e-08
1.283953757e-08
1.293499207e-08
1.526032827e-07
1.518661563e-07
1.495206326e-07
1.449894062e-07
1.381004018e-07
1.289480611e-07
1.179065813e-07
1.055675539e-07
9.263804023e-08
7.98115889e-08
6.765400282e-08
5.654826011e-08
4.670761385e-08
3.822973446e-08
3.115140875e-08
2.547558031e-08
2.117120346e-08
1.815995437e-08
1.631879819e-08
1.54617598e-08
1.530315595e-08
1.547556773e-08
1.534632693e-07
1.527068942e-07
1.503120662e-07
1.457533253e-07
1.388923666e-07
1.298451483e-07
1.189718851e-07
1.068237818e-07
9.406627188e-08
8.137117999e-08
6.93098933e-08
5.828913177e-08
4.854703537e-08
4.019300625e-08
3.325820065e-08
2.773046488e-08
2.356659803e-08
2.068676283e-08
1.89786547e-08
1.825473874e-08
1.822200283e-08
1.848641169e-08
1.543235352e-07
1.535472283e-07
1.511228212e-07
1.465950056e-07
1.398634819e-07
1.310646122e-07
1.205345928e-07
1.087675759e-07
9.636277385e-08
8.394284315e-08
7.206282761e-08
6.114400015e-08
5.145536935e-08
4.313667499e-08
3.623840057e-08
3.075644781e-08
2.665076225e-08
2.384623619e-08
2.224002579e-08
2.163573375e-08
2.173295798e-08
2.209768501e-08
1.551751731e-07
1.54382778e-07
1.519632206e-07
1.475437388e-07
1.410673327e-07
1.326889143e-07
1.22711534e-07
1.115565593e-07
9.973395021e-08
8.778858807e-08
7.62316771e-08
6.548078122e-08
5.583258007e-08
4.747003454e-08
4.048712723e-08
3.491508819e-08
3.073975501e-08
2.790525663e-08
2.632265341e-08
2.578957142e-08
2.599572951e-08
2.645792367e-08
1.560107189e-07
1.55211493e-07
1.528512584e-07
1.486357577e-07
1.425649088e-07
1.348078523e-07
1.256255019e-07
1.153534297e-07
1.043928087e-07
9.318276951e-08
8.215896618e-08
7.170750982e-08
6.21370847e-08
5.367612022e-08
4.648131877e-08
4.064884819e-08
3.622154095e-08
3.318822436e-08
3.148796883e-08
3.092756021e-08
3.118561084e-08
3.172564169e-08
1.568248426e-07
1.560393817e-07
1.538026052e-07
1.499071449e-07
1.444141884e-07
1.375012439e-07
1.293792716e-07
1.20289917e-07
1.105121257e-07
1.003552712e-07
9.014693658e-08
8.020645751e-08
7.082438235e-08
6.226051367e-08
5.474134708e-08
4.845465342e-08
4.353813964e-08
4.006403487e-08
3.802856333e-08
3.727586191e-08
3.748172017e-08
3.805690841e-08
1.576156992e-07
1.568716314e-07
1.548328967e-07
1.513862804e-07
1.466522037e-07
1.408081714e-07
1.340093593e-07
1.264016042e-07
1.181377418e-07
1.093830396e-07
1.003299017e-07
9.119429007e-08
8.220628173e-08
7.362240064e-08
6.572383003e-08
5.880248708e-08
5.312819816e-08
4.890697574e-08
4.624119257e-08
4.505602565e-08
4.5049972e-08
4.558921462e-08
1.583817662e-07
1.577112573e-07
1.559505428e-07
1.530804014e-07
1.492697487e-07
1.446849378e-07
1.394224324e-07
1.335372387e-07
1.270657036e-07
1.200326633e-07
1.124823601e-07
1.045015505e-07
9.621572513e-08
8.782505341e-08
7.96186547e-08
7.197321035e-08
6.530933164e-08
6.001771974e-08
5.637596581e-08
5.445328169e-08
5.401945483e-08
5.44212919e-08
1.591202324e-07
1.585564693e-07
1.571483416e-07
1.549591916e-07
1.521838146e-07
1.489631884e-07
1.453355448e-07
1.412764776e-07
1.367309383e-07
1.316129944e-07
1.258300885e-07
1.193395769e-07
1.121356028e-07
1.043053605e-07
9.606852035e-08
8.781731057e-08
8.009367172e-08
7.349727153e-08
6.855602289e-08
6.556868175e-08
6.445179897e-08
6.458595918e-08
1.598267819e-07
1.59398522e-07
1.583977408e-07
1.569447177e-07
1.552256023e-07
1.533373168e-07
1.512651297e-07
1.489278227e-07
1.462105235e-07
1.42970754e-07
1.390285345e-07
1.342407515e-07
1.284796977e-07
1.216888288e-07
1.139357925e-07
1.055118853e-07
9.697571085e-08
8.909041824e-08
8.267247798e-08
7.83510996e-08
7.629980751e-08
7.601822742e-08
1.604950747e-07
1.602204414e-07
1.596476069e-07
1.589173466e-07
1.581618522e-07
1.574171827e-07
1.566208862e-07
1.556702151e-07
1.544345322e-07
1.527740275e-07
1.504890788e-07
1.473908169e-07
1.432781284e-07
1.379735963e-07
1.313538475e-07
1.234936099e-07
1.147993422e-07
1.060442101e-07
9.827693243e-08
9.252580746e-08
8.936052252e-08
8.852033986e-08
1.611175115e-07
1.609987702e-07
1.608280479e-07
1.607428583e-07
1.607511474e-07
1.608420678e-07
1.60897832e-07
1.608615397e-07
1.605995457e-07
1.600364298e-07
1.590067559e-07
1.57334675e-07
1.54808463e-07
1.512037035e-07
1.462468014e-07
1.397647135e-07
1.318619659e-07
1.230867296e-07
1.145157455e-07
1.075337365e-07
1.032302497e-07
1.017295771e-07
1.616878829e-07
1.617147655e-07
1.618995662e-07
1.622870608e-07
1.628199103e-07
1.63398966e-07
1.639252378e-07
1.643146322e-07
1.644932419e-07
1.645243354e-07
1.642555362e-07
1.635916695e-07
1.623617848e-07
1.603177691e-07
1.571639668e-07
1.525784415e-07
1.463516429e-07
1.386231248e-07
1.301778745e-07
1.225228741e-07
1.172766495e-07
1.151048757e-07
1.622007045e-07
1.623462292e-07
1.627997946e-07
1.635142993e-07
1.643347567e-07
1.651169938e-07
1.657773717e-07
1.662864021e-07
1.666354516e-07
1.66801288e-07
1.668379207e-07
1.666774367e-07
1.66227227e-07
1.653477549e-07
1.638005853e-07
1.611680728e-07
1.570074954e-07
1.51175731e-07
1.439053399e-07
1.364309507e-07
1.306774377e-07
1.279576891e-07
1.626548861e-07
1.628859575e-07
1.635222922e-07
1.644298164e-07
1.65372161e-07
1.661897162e-07
1.668319323e-07
1.673107803e-07
1.676552575e-07
1.678936008e-07
1.680153851e-07
1.680511624e-07
1.679575569e-07
1.676605669e-07
1.670219959e-07
1.658080964e-07
1.636381607e-07
1.599372432e-07
1.545792289e-07
1.481895079e-07
1.425517983e-07
1.395441329e-07
1.630527455e-07
1.633355062e-07
1.640782392e-07
1.650792482e-07
1.660471401e-07
1.668257558e-07
1.674008693e-07
1.678163648e-07
1.681178707e-07
1.683403798e-07
1.68503983e-07
1.686145438e-07
1.686608928e-07
1.686290311e-07
1.684357455e-07
1.679481152e-07
1.669465717e-07
1.650558788e-07
1.617536261e-07
1.570457406e-07
1.52168065e-07
1.492187536e-07
1.633991321e-07
1.637023751e-07
1.644891409e-07
1.655167273e-07
1.664634469e-07
1.671829967e-07
1.676895854e-07
1.680466492e-07
1.683061915e-07
1.685005914e-07
1.686559259e-07
1.687906621e-07
1.68913895e-07
1.68990234e-07
1.690065322e-07
1.688726997e-07
1.684654838e-07
1.675664625e-07
1.658313751e-07
1.628643508e-07
1.591676483e-07
1.566035904e-07
1.637005818e-07
1.639978346e-07
1.647807408e-07
1.657924431e-07
1.667011702e-07
1.673680754e-07
1.678225798e-07
1.681370214e-07
1.683644573e-07
1.685368229e-07
1.686806211e-07
1.688166237e-07
1.689554636e-07
1.69094614e-07
1.692062421e-07
1.692430838e-07
1.691302214e-07
1.687297519e-07
1.678407959e-07
1.661735871e-07
1.636964129e-07
1.617051449e-07
1.639644842e-07
1.642345275e-07
1.649772e-07
1.65947323e-07
1.668173158e-07
1.674462819e-07
1.678678369e-07
1.681564673e-07
1.683637828e-07
1.685200383e-07
1.686479048e-07
1.687720865e-07
1.689127218e-07
1.690775678e-07
1.692493567e-07
1.693731078e-07
1.694125634e-07
1.692833363e-07
1.688139725e-07
1.678621039e-07
1.663133378e-07
1.648946074e-07
1.641998656e-07
1.644250359e-07
1.651023827e-07
1.660081942e-07
1.668301982e-07
1.674411485e-07
1.678564935e-07
1.681393704e-07
1.683376572e-07
1.684786117e-07
1.685865671e-07
1.686857234e-07
1.688040686e-07
1.689654993e-07
1.691744101e-07
1.693955816e-07
1.695139858e-07
1.695333642e-07
1.693177077e-07
1.6872797e-07
1.677278678e-07
1.667440859e-07
1.644137933e-07
1.645861226e-07
1.651692071e-07
1.659971006e-07
1.667950022e-07
1.673999108e-07
1.678150165e-07
1.680971471e-07
1.682927624e-07
1.684280023e-07
1.685212557e-07
1.685954782e-07
1.68682192e-07
1.688171791e-07
1.690252315e-07
1.692947287e-07
1.695362487e-07
1.696366658e-07
1.695999399e-07
1.692318022e-07
1.68522854e-07
1.678071843e-07
1.646133381e-07
1.647303426e-07
1.652022126e-07
1.659536229e-07
1.667075787e-07
1.673068488e-07
1.677314152e-07
1.680257007e-07
1.682301294e-07
1.683681252e-07
1.684553918e-07
1.685117194e-07
1.685682955e-07
1.686677373e-07
1.688515478e-07
1.691310404e-07
1.694576764e-07
1.696642727e-07
1.697241265e-07
1.695527053e-07
1.690275093e-07
1.684684591e-07
1.648081716e-07
1.648686103e-07
1.652155335e-07
1.658659844e-07
1.665646181e-07
1.67158821e-07
1.676031139e-07
1.67919619e-07
1.681414155e-07
1.682905298e-07
1.683809078e-07
1.684291245e-07
1.68463889e-07
1.685305761e-07
1.686822635e-07
1.689489509e-07
1.693020901e-07
1.696310451e-07
1.697667048e-07
1.697440066e-07
1.693735399e-07
1.689251812e-07
1.650160755e-07
1.650182309e-07
1.652401677e-07
1.657575415e-07
1.663865852e-07
1.669645029e-07
1.674255685e-07
1.677687226e-07
1.680150882e-07
1.681832375e-07
1.682855597e-07
1.683359128e-07
1.68359787e-07
1.684024365e-07
1.685241895e-07
1.687700001e-07
1.691243358e-07
1.695126184e-07
1.697691599e-07
1.698304348e-07
1.69609062e-07
1.692554497e-07
1.652697163e-07
1.651963137e-07
1.653000711e-07
1.656461123e-07
1.661834079e-07
1.667267748e-07
1.671947866e-07
1.675639389e-07
1.678398578e-07
1.68034381e-07
1.68157367e-07
1.682202702e-07
1.682454663e-07
1.682766615e-07
1.683773964e-07
1.686028814e-07
1.689467228e-07
1.693469255e-07
1.697098436e-07
1.698567673e-07
1.697638052e-07
1.694900472e-07
1.656310024e-07
1.65464141e-07
1.654357083e-07
1.656167297e-07
1.659964569e-07
1.66465505e-07
1.669171791e-07
1.673031832e-07
1.676092692e-07
1.678359416e-07
1.67987872e-07
1.68073553e-07
1.68112423e-07
1.681463398e-07
1.682382026e-07
1.684498992e-07
1.687769004e-07
1.691698793e-07
1.695925479e-07
1.698509062e-07
1.698511569e-07
1.696484239e-07
1.661575675e-07
1.659109737e-07
1.657016061e-07
1.657112804e-07
1.658918654e-07
1.662267354e-07
1.666175553e-07
1.66996394e-07
1.673255323e-07
1.675867758e-07
1.677745464e-07
1.678925372e-07
1.679568107e-07
1.680062986e-07
1.681060367e-07
1.683122522e-07
1.686188455e-07
1.689903112e-07
1.69435378e-07
1.698049841e-07
1.698864727e-07
1.697489845e-07
1.667705403e-07
1.665209009e-07
1.661938651e-07
1.659797613e-07
1.6598834e-07
1.661261177e-07
1.663833264e-07
1.666973521e-07
1.670171358e-07
1.673017093e-07
1.675260455e-07
1.676829906e-07
1.677827519e-07
1.678609409e-07
1.679806174e-07
1.681918099e-07
1.684725168e-07
1.688077898e-07
1.692653857e-07
1.69723935e-07
1.698935297e-07
1.69809648e-07
1.67043647e-07
1.669061872e-07
1.666257226e-07
1.663828204e-07
1.662392323e-07
1.662256087e-07
1.663178207e-07
1.665142565e-07
1.667690358e-07
1.670371028e-07
1.672778011e-07
1.674676904e-07
1.676055038e-07
1.677207503e-07
1.678710655e-07
1.680903938e-07
1.683360632e-07
1.686249469e-07
1.690929159e-07
1.696248448e-07
1.69879321e-07
1.69838959e-07
1.661506785e-07
1.662117414e-07
1.660566209e-07
1.66001953e-07
1.660155954e-07
1.660977642e-07
1.662317686e-07
1.664189216e-07
1.666304305e-07
1.668536044e-07
1.670794338e-07
1.672826125e-07
1.674504489e-07
1.676036724e-07
1.677884946e-07
1.680087717e-07
1.682032833e-07
1.684427827e-07
1.689192711e-07
1.695273939e-07
1.698516091e-07
1.698472366e-07
1.6342521e-07
1.635738447e-07
1.632772496e-07
1.634616816e-07
1.640662982e-07
1.64920044e-07
1.656448523e-07
1.661344508e-07
1.664708154e-07
1.667322289e-07
1.669533327e-07
1.671571444e-07
1.673432215e-07
1.67529521e-07
1.677415102e-07
1.679350623e-07
1.680604599e-07
1.682648314e-07
1.687561051e-07
1.694592562e-07
1.698295071e-07
1.698443832e-07
1.595834294e-07
1.592041432e-07
1.584342599e-07
1.584812481e-07
1.594239856e-07
1.612760378e-07
1.635928015e-07
1.651906467e-07
1.660699161e-07
1.665557177e-07
1.668640173e-07
1.670923263e-07
1.672978487e-07
1.675103152e-07
1.67717648e-07
1.678335366e-07
1.678920027e-07
1.680795202e-07
1.686419329e-07
1.694325126e-07
1.69820301e-07
1.698267884e-07
1.566443188e-07
1.56711501e-07
1.563631524e-07
1.559677439e-07
1.55860106e-07
1.565056988e-07
1.591245616e-07
1.628298147e-07
1.65040352e-07
1.661475925e-07
1.667122341e-07
1.670432418e-07
1.672926269e-07
1.675180357e-07
1.676596156e-07
1.676487147e-07
1.676721311e-07
1.678805097e-07
1.685979827e-07
1.694607414e-07
1.698221613e-07
1.697866806e-07
1.564619845e-07
1.576132925e-07
1.576100021e-07
1.570090267e-07
1.559238043e-07
1.548066066e-07
1.553197571e-07
1.58419433e-07
1.627935644e-07
1.652048499e-07
1.663603143e-07
1.669289127e-07
1.672655405e-07
1.674852273e-07
1.674529958e-07
1.673448415e-07
1.673860692e-07
1.67751308e-07
1.687143651e-07
1.6960091e-07
1.698371478e-07
1.697125862e-07
1.597172198e-07
1.609904226e-07
1.60948136e-07
1.60212075e-07
1.586779948e-07
1.5600537e-07
1.5442151e-07
1.550697527e-07
1.585166529e-07
1.63264401e-07
1.655973515e-07
1.666376602e-07
1.671508111e-07
1.672992808e-07
1.670529501e-07
1.669208497e-07
1.670551715e-07
1.677221557e-07
1.690321068e-07
1.698062686e-07
1.698309017e-07
1.695848703e-07
1.632128451e-07
1.641179631e-07
1.640223425e-07
1.633520075e-07
1.615760581e-07
1.584607534e-07
1.548807474e-07
1.541490133e-07
1.554705362e-07
1.600971685e-07
1.641187386e-07
1.660345032e-07
1.668649069e-07
1.667785188e-07
1.664167697e-07
1.664128938e-07
1.668688369e-07
1.681142674e-07
1.695052666e-07
1.699730698e-07
1.697542024e-07
1.694161764e-07
1.663970068e-07
1.66778293e-07
1.665553564e-07
1.65746192e-07
1.639544838e-07
1.595704997e-07
1.542143213e-07
1.53232546e-07
1.539125367e-07
1.571074446e-07
1.620442515e-07
1.64952574e-07
1.66227518e-07
1.658890765e-07
1.656537974e-07
1.660438436e-07
1.670895892e-07
1.687790078e-07
1.698680779e-07
1.700301616e-07
1.696349199e-07
1.692649557e-07
1.683491768e-07
1.683149184e-07
1.680893947e-07
1.671580454e-07
1.656247602e-07
1.611981251e-07
1.534996648e-07
1.5275062e-07
1.532459823e-07
1.552728499e-07
1.598185359e-07
1.633511125e-07
1.649906436e-07
1.647926736e-07
1.652077578e-07
1.661316616e-07
1.676704773e-07
1.691175513e-07
1.699464913e-07
1.699655357e-07
1.695198093e-07
1.691400918e-07
1.694764469e-07
1.693833234e-07
1.690383062e-07
1.685654892e-07
1.679387855e-07
1.647357927e-07
1.500600859e-07
1.529509352e-07
1.534311778e-07
1.548724636e-07
1.580724768e-07
1.616127624e-07
1.629935915e-07
1.642879672e-07
1.651830277e-07
1.661012248e-07
1.680624815e-07
1.692964337e-07
1.697199292e-07
1.695672284e-07
1.690203869e-07
1.687757345e-07
1.701504635e-07
1.700235456e-07
1.697200416e-07
1.694399424e-07
1.689737162e-07
1.664905956e-07
1.538185277e-07
1.540615106e-07
1.544283215e-07
1.553977752e-07
1.578502928e-07
1.605588253e-07
1.623095856e-07
1.646282212e-07
1.650410546e-07
1.624242236e-07
1.647012317e-07
1.65910505e-07
1.663255307e-07
1.661758839e-07
1.656399791e-07
1.654002198e-07
1.705623609e-07
1.703884462e-07
1.70174682e-07
1.699592089e-07
1.694909394e-07
1.631589202e-07
1.566288364e-07
1.52515429e-07
1.560436055e-07
1.570458994e-07
1.586023401e-07
1.607215731e-07
1.636234097e-07
1.656059416e-07
1.655116729e-07
1.621984123e-07
1.579701214e-07
1.54833208e-07
1.607667361e-07
1.622178504e-07
1.580649869e-07
1.704007967e-11
1.707971383e-07
1.706772589e-07
1.70558041e-07
1.704418108e-07
1.698510741e-07
1.645100592e-07
1.587911494e-07
1.50491634e-07
1.547679812e-07
1.59526486e-07
1.609262495e-07
1.624856905e-07
1.653595163e-07
1.660166079e-07
1.626958917e-07
1.5689367e-07
1.529322894e-07
1.496296256e-07
1.555946798e-09
3.318755214e-11
1.748511502e-12
1.854812982e-15
1.709356312e-07
1.708136366e-07
1.707230595e-07
1.705910851e-07
1.695142256e-07
1.643599123e-07
1.590189306e-07
1.530063308e-07
1.553544518e-07
1.58926354e-07
1.634560749e-07
1.652338985e-07
1.665281798e-07
1.664693893e-07
1.631392633e-07
1.574142131e-07
1.536870531e-07
1.501784859e-07
1.280684255e-09
8.716337603e-14
7.849324362e-17
2.086063769e-19
1.710334232e-07
1.708993543e-07
1.708357294e-07
1.7068119e-07
1.660012768e-07
1.614049515e-07
1.564715374e-07
1.512647574e-07
1.525326213e-07
1.556530583e-07
1.611903828e-07
1.651976935e-07
1.664061476e-07
1.663715037e-07
1.623110392e-07
1.580985278e-07
1.545357883e-07
1.461075846e-07
3.636925527e-10
2.267102554e-14
1.664215681e-18
2.154717748e-22
1.7111249e-07
1.709451307e-07
1.708686194e-07
1.70669621e-07
1.666813532e-07
1.623488342e-07
1.575165839e-07
1.528976181e-07
1.494920634e-07
1.525441878e-07
1.577518554e-07
1.618099011e-07
1.63049117e-07
1.630247032e-07
1.589546841e-07
1.542962149e-07
1.506474315e-07
9.476025011e-08
4.644037061e-11
2.854061842e-15
2.162182872e-19
2.537772585e-23
1.712023763e-07
1.709721966e-07
1.708591806e-07
1.672804783e-07
1.636894018e-07
1.595224668e-07
1.547120158e-07
1.495485302e-07
1.459602503e-07
1.494702934e-07
1.544534823e-07
1.585731775e-07
1.597794183e-07
1.596527405e-07
1.557551374e-07
1.51086695e-07
9.792094568e-08
9.960269349e-10
7.478296204e-14
4.907242352e-18
3.791523533e-22
3.285063992e-26
1.713052703e-07
1.709749687e-07
1.708710587e-07
1.672389405e-07
1.638492997e-07
1.572340691e-07
1.510147493e-07
1.285150511e-07
1.193237268e-07
1.355657795e-07
1.412566786e-07
1.430717357e-07
1.552566419e-07
1.528945346e-07
9.562653468e-08
2.131570059e-08
9.240022417e-10
2.589595496e-13
4.07481714e-17
3.207863753e-21
2.659217039e-25
1.930819961e-29
1.714472288e-07
1.709264102e-07
1.708257857e-07
1.673654986e-07
1.640172698e-07
1.603707581e-07
5.643000928e-10
3.717665437e-09
7.208380662e-08
1.206598189e-07
1.321922279e-07
1.264462923e-07
1.018733156e-07
1.529748936e-08
1.151186333e-09
2.551000287e-11
6.022460626e-14
6.787307428e-17
1.162738168e-20
1.213148145e-24
1.168203052e-28
6.334121113e-33
1.716256904e-07
1.707707578e-07
1.706657226e-07
1.672437022e-07
1.638983466e-07
1.570402051e-07
1.971262369e-10
2.146421524e-11
4.66034412e-09
3.852065114e-08
6.246232893e-08
6.217491535e-08
2.722209555e-09
1.287678601e-10
6.903879728e-12
6.06892402e-14
5.058634317e-17
1.937558519e-20
3.190338762e-24
4.106485547e-28
4.386872915e-32
1.856978174e-36
1.718968771e-07
1.705186559e-07
1.70384692e-07
1.66975821e-07
1.636356583e-07
1.182203759e-08
8.682114425e-12
0
0
3.271882861e-10
2.154806112e-09
4.224065086e-10
5.940366665e-11
2.692926195e-12
4.793028547e-14
1.987007078e-16
1.305636088e-19
2.528373608e-23
2.901616604e-27
3.224653036e-31
2.772916219e-35
8.696642692e-40
1.722169462e-07
1.700372284e-07
1.6985304e-07
1.664559503e-07
1.61055379e-07
7.535906226e-09
0
1.095150046e-16
0
3.038143919e-12
3.56327356e-11
2.715682694e-12
6.741197177e-13
3.438409029e-14
3.089863013e-16
6.459819883e-19
3.400221264e-22
6.368919713e-26
6.865426939e-30
6.575649064e-34
3.758346244e-38
5.441161295e-43
1.724861169e-07
1.68887412e-07
1.687048305e-07
1.653307337e-07
1.585654412e-07
2.099780586e-09
1.475853505e-13
0
2.937706882e-16
2.620447587e-14
3.593193106e-13
2.51838221e-14
6.774267066e-15
2.80193244e-16
1.435840241e-18
1.863458217e-21
8.343820669e-25
1.404180041e-28
1.498717577e-32
1.212393823e-36
5.211187227e-41
6.034141693e-46
1.724170284e-07
1.673544377e-07
1.669346241e-07
1.635959316e-07
1.434239716e-07
9.82303974e-10
1.898052482e-13
0
2.129389826e-18
2.483580263e-16
3.274994003e-15
2.402169907e-16
6.148711156e-17
1.744709232e-18
5.453742249e-21
5.069186425e-24
1.937463119e-27
2.750133496e-31
2.685372632e-35
1.557024958e-39
2.638869616e-44
4.756865508e-50
1.714591829e-07
1.652790672e-07
1.642862957e-07
1.610005697e-07
1.312802464e-07
1.596320353e-10
0
5.596540132e-17
0
2.445407158e-18
2.971522807e-17
2.303981538e-18
5.953537583e-19
9.994046125e-21
1.955564787e-23
1.311877463e-26
3.885518938e-30
4.51265358e-34
3.419681028e-38
1.315060138e-42
1.525350182e-47
1.142091469e-53
1.695991231e-07
1.592570722e-07
1.582954455e-07
1.551295366e-07
5.447957436e-08
3.202024707e-11
2.167505058e-15
0
5.095074911e-22
2.991965847e-20
2.915144175e-19
2.095540794e-20
1.849997367e-21
3.223436312e-23
4.690974618e-26
2.314337779e-29
4.884717645e-33
4.44570024e-37
2.114147495e-41
2.643473208e-46
1.709933769e-52
2.04490018e-58
1.656239095e-07
1.537369429e-07
1.526717085e-07
1.496182743e-07
3.360765803e-08
1.252614722e-11
0
2.837339018e-19
5.706062517e-23
1.292769892e-22
8.573378296e-22
1.047875304e-22
1.653975451e-24
6.550837619e-26
7.073723654e-29
2.493687179e-32
3.587876584e-36
2.272718057e-40
6.328472295e-45
5.15701926e-50
3.211860466e-55
3.374126069e-60
1.630186806e-07
1.482595549e-07
1.470788746e-07
1.441372971e-07
4.532315435e-09
2.75233219e-13
3.339832065e-18
6.893324261e-22
5.809024743e-25
8.853781161e-26
1.033625273e-24
3.635245706e-25
2.990126646e-27
8.362048072e-29
6.719842526e-32
1.665552928e-35
1.539931566e-39
6.230130032e-44
8.964580471e-49
5.820256001e-54
7.185971549e-59
1.165536741e-63
1.583240181e-07
1.416212958e-07
1.404208137e-07
1.376123974e-07
1.826058315e-10
5.904523229e-14
2.52682743e-17
1.08222807e-20
7.581138791e-24
5.569386329e-27
2.147256964e-27
8.753430909e-28
4.870445581e-30
6.719377585e-32
3.894043187e-35
6.463919981e-39
3.47063803e-43
4.973139585e-48
3.514990229e-53
4.654769051e-58
6.158084716e-63
8.42252463e-68
1.492578129e-07
1.351053409e-07
1.340763905e-07
1.313948626e-07
8.424254681e-11
5.221697225e-14
3.491889426e-17
2.466953038e-20
2.084783757e-23
1.749421912e-26
1.841211025e-29
1.381026352e-30
5.30216445e-33
3.243213188e-35
1.250945637e-38
1.224917462e-42
2.866214014e-47
2.283589043e-52
2.789632852e-57
3.688381921e-62
4.845950152e-67
8.308883181e-72
1.476102793e-07
1.291234619e-07
1.278283991e-07
1.252718311e-07
8.096455729e-11
7.025777009e-14
5.876164047e-17
4.85340557e-20
4.17910856e-23
3.375593638e-26
2.41863418e-29
1.523235675e-32
8.925396913e-36
9.974527665e-39
2.135435845e-42
1.21122514e-46
2.658106338e-51
4.089596456e-56
5.720680171e-61
6.964143965e-66
8.272725494e-71
1.436044243e-75
1.415791996e-07
1.193051055e-07
1.177718339e-07
1.154163973e-07
1.477615409e-10
1.624413288e-13
1.524794244e-16
1.298602883e-19
1.056570294e-22
7.560732151e-26
4.445181764e-29
1.946126945e-32
5.747343898e-36
1.05125945e-39
8.277485327e-44
7.975437863e-49
6.084748606e-54
9.196480216e-59
1.250979606e-63
1.449739055e-68
1.578237768e-73
2.576013145e-78
1.293523224e-07
1.103866977e-07
1.089763904e-07
1.067968626e-07
1.341300098e-10
1.714440731e-13
1.757885522e-16
1.513663797e-19
1.174525583e-22
7.626950235e-26
3.851321998e-29
1.362104417e-32
2.971355971e-36
3.08699751e-40
1.080508916e-44
2.151344216e-49
3.513177954e-54
5.469213443e-59
7.594693429e-64
8.77273969e-69
8.97087091e-74
1.469893355e-78
1.199453927e-07
1.025151254e-07
1.011095963e-07
9.908740439e-08
1.177971173e-10
1.611674385e-13
1.781167241e-16
1.554836364e-19
1.188376304e-22
7.422282314e-26
3.505109281e-29
1.126598328e-32
2.249728779e-36
2.488999209e-40
9.145902925e-45
7.577222794e-50
1.280896666e-54
2.064183947e-59
2.946809269e-64
3.419992569e-69
3.190249248e-74
4.992263538e-79
1.090703202e-07
9.507124183e-08
9.381435094e-08
9.193806392e-08
1.771652548e-10
3.798686536e-13
4.436645502e-16
4.124098651e-19
3.165596503e-22
1.977001828e-25
9.831537872e-29
3.262740351e-32
6.342439284e-36
8.039095419e-40
5.321955703e-44
9.436035511e-49
1.699728488e-53
2.832757692e-58
4.157548712e-63
4.91417316e-68
4.317138948e-73
6.297062687e-78
1.002866321e-07
9.013683787e-08
8.913735454e-08
8.735460744e-08
1.326508706e-10
2.358228956e-13
2.852316779e-16
2.626448656e-19
2.042778535e-22
1.295775122e-25
6.373770759e-29
2.067136802e-32
3.747282421e-36
2.513816414e-40
3.32552998e-45
6.118900321e-50
1.105304381e-54
1.942180126e-59
2.927016149e-64
3.489053126e-69
3.240382176e-74
4.632740475e-79
9.551356897e-08
8.81607884e-08
8.688221856e-08
8.514457419e-08
1.110959737e-10
1.713457489e-13
2.10580407e-16
1.88002854e-19
1.479672612e-22
9.538102364e-26
4.531480546e-29
1.420886158e-32
3.297028298e-36
3.977049668e-40
5.668004664e-45
1.072648962e-49
1.994485258e-54
3.548638914e-59
5.47628729e-64
6.586654326e-69
6.013141471e-74
8.021311272e-79
9.878587024e-08
8.347084701e-08
8.183304033e-08
8.019637952e-08
7.056929778e-11
9.416613763e-14
1.149354059e-16
1.023803161e-19
8.11983287e-23
5.307459985e-26
2.554644119e-29
8.442245938e-33
2.073460885e-36
3.247340786e-40
1.823222738e-44
3.537226851e-49
6.746125828e-54
1.236262539e-58
1.953744802e-63
2.373454514e-68
2.130144893e-73
2.633975776e-78
8.955394855e-08
7.716906401e-08
7.585088337e-08
7.43338657e-08
7.454333424e-11
8.9707662e-14
1.072780708e-16
9.468207835e-20
7.53338968e-23
4.983738951e-26
2.441558866e-29
8.847032815e-33
2.15419212e-36
2.047431152e-40
5.231083677e-45
1.035364598e-49
2.012047421e-54
3.781543814e-59
6.135913839e-64
7.567953047e-69
6.691060854e-74
7.492996912e-79
8.535560825e-08
7.125473543e-08
6.972473292e-08
6.833023826e-08
5.082686208e-11
6.17062298e-14
7.27817218e-17
6.588414291e-20
9.110624553e-23
1.151301221e-25
6.46276432e-29
2.854599859e-32
8.997409544e-36
1.308369517e-39
2.758121563e-44
5.52815449e-49
1.083797381e-53
2.073975737e-58
3.46087806e-63
4.3600177e-68
3.814692548e-73
3.639648642e-78
7.571297836e-08
6.207565478e-08
6.059353759e-08
5.938166683e-08
1.126806983e-10
2.933985956e-13
3.410983141e-16
3.1391282e-19
4.484785483e-22
5.900471117e-25
4.000681338e-28
2.194491747e-31
6.592697306e-35
8.331646311e-39
1.050135284e-43
2.11254713e-48
4.135551069e-53
7.990123975e-58
1.368239812e-62
1.765148719e-67
1.536881237e-72
1.210180865e-77
6.530920233e-08
5.429271577e-08
5.308099356e-08
5.201937369e-08
4.955807548e-11
5.803281586e-14
6.83279936e-17
6.555393913e-20
8.815568965e-23
1.049592386e-25
7.99373048e-29
4.83547918e-32
1.133114167e-35
9.46915068e-40
2.634153256e-44
5.259824677e-49
1.019727408e-53
1.973058555e-58
3.441287853e-63
4.53164342e-68
3.948996781e-73
3.438512338e-78
5.925173819e-08
4.957990706e-08
4.844331352e-08
4.747444725e-08
5.092239117e-11
7.127826319e-14
9.4189917e-17
1.260525938e-19
2.024060018e-22
2.165084529e-25
1.66089913e-28
1.287404066e-31
5.339567619e-35
4.882417409e-39
1.155495079e-43
2.267807066e-48
4.34360293e-53
8.376841557e-58
1.472641309e-62
1.964498639e-67
1.713013726e-72
1.323958904e-77
5.326205616e-08
4.566187579e-08
4.473771277e-08
4.384295852e-08
5.676243241e-11
1.085677056e-13
1.640540334e-16
2.670075747e-19
4.900198544e-22
5.213377929e-25
3.965003759e-28
2.646213641e-31
9.480904508e-35
1.1230533e-38
2.820437046e-43
5.417238636e-48
1.032527532e-52
1.989108106e-57
3.489337332e-62
4.667052411e-67
4.080751152e-72
2.594835966e-77
4.837614379e-08
4.242317069e-08
4.161881115e-08
4.078643493e-08
4.658680868e-11