/*--------------------------------*- C++ -*----------------------------------*\
  =========                 |
  \\      /  F ield         | OpenFOAM: The Open Source CFD Toolbox
   \\    /   O peration     | Website:  https://openfoam.org
    \\  /    A nd           | Version:  9
     \\/     M anipulation  |
\*---------------------------------------------------------------------------*/
FoamFile
{
    format      ascii;
    class       volScalarField;
    location    "10";
    object      F2Li2.gas;
}
// * * * * * * * * * * * * * * * * * * * * * * * * * * * * * * * * * * * * * //

dimensions      [0 0 0 0 0 0 0];

internalField   nonuniform List<scalar> 
2215
(
3.102888068e-10
3.086798747e-10
3.048034764e-10
2.978607537e-10
2.872449598e-10
2.726451522e-10
2.540108891e-10
2.314755928e-10
2.049934727e-10
1.740714636e-10
1.374035591e-10
9.245677112e-11
3.350665623e-11
1.323503853e-11
5.509238871e-12
2.406730051e-12
1.132612464e-12
6.062000266e-13
3.993422158e-13
3.450718848e-13
3.775120007e-13
4.491606409e-13
3.110773786e-10
3.096139896e-10
3.058194588e-10
2.987669928e-10
2.87837942e-10
2.727870229e-10
2.537767866e-10
2.310944472e-10
2.049447375e-10
1.751675552e-10
1.411087843e-10
1.024835836e-10
6.160837945e-11
3.399921166e-11
1.788329548e-11
9.241962333e-12
4.873213061e-12
2.765989908e-12
1.817670187e-12
1.474267734e-12
1.457117582e-12
1.573483725e-12
3.122506584e-10
3.108494726e-10
3.070076307e-10
2.997209924e-10
2.883890914e-10
2.728280622e-10
2.533167759e-10
2.303573678e-10
2.044285008e-10
1.756850356e-10
1.442514991e-10
1.102606464e-10
7.621339481e-11
4.832135009e-11
2.873090096e-11
1.646746359e-11
9.431819496e-12
5.671920297e-12
3.822533723e-12
3.059506709e-12
2.901946967e-12
3.008089754e-12
3.136042059e-10
3.122137499e-10
3.082757593e-10
3.007205166e-10
2.889483526e-10
2.728248569e-10
2.527233364e-10
2.293561492e-10
2.034622329e-10
1.755272915e-10
1.458366284e-10
1.150074225e-10
8.463243777e-11
5.800546574e-11
3.740915918e-11
2.31729635e-11
1.422346791e-11
9.040881076e-12
6.303104829e-12
5.072214673e-12
4.72445484e-12
4.790175716e-12
3.15056783e-10
3.136622572e-10
3.096174072e-10
3.017813622e-10
2.89548545e-10
2.728247754e-10
2.520681217e-10
2.28185274e-10
2.021365825e-10
1.746595172e-10
1.462380129e-10
1.175241708e-10
8.961922444e-11
6.453254281e-11
4.408274338e-11
2.900254501e-11
1.886940212e-11
1.262236465e-11
9.127836399e-12
7.457624672e-12
6.912856087e-12
6.927898736e-12
3.16585454e-10
3.151899349e-10
3.110418274e-10
3.029218488e-10
2.902176053e-10
2.728689902e-10
2.514260873e-10
2.269680798e-10
2.006313552e-10
1.733647206e-10
1.458220673e-10
1.185827931e-10
9.252252885e-11
6.892312082e-11
4.913478278e-11
3.391505256e-11
2.318480087e-11
1.624488064e-11
1.218478928e-11
1.015812113e-11
9.445079998e-12
9.416146844e-12
3.181917414e-10
3.168047103e-10
3.125608929e-10
3.041596342e-10
2.909885283e-10
2.73026898e-10
2.509068261e-10
2.258408629e-10
1.991331163e-10
1.71898104e-10
1.449238621e-10
1.187885694e-10
9.41540971e-11
7.189493445e-11
5.297265969e-11
3.802753843e-11
2.712802467e-11
1.98223793e-11
1.540331189e-11
1.31322331e-11
1.230448292e-11
1.22516706e-11
3.198846961e-10
3.18515267e-10
3.141816563e-10
3.055074682e-10
2.918907192e-10
2.733617524e-10
2.50669619e-10
2.249627538e-10
1.978335563e-10
1.705158277e-10
1.438989891e-10
1.185803667e-10
9.507358644e-11
7.398578154e-11
5.597788626e-11
4.153287351e-11
3.075539456e-11
2.334660203e-11
1.876108752e-11
1.636781516e-11
1.549364769e-11
1.544688055e-11
3.216720918e-10
3.203251118e-10
3.159031073e-10
3.069715344e-10
2.929443825e-10
2.738988121e-10
2.506490734e-10
2.245497423e-10
1.970216742e-10
1.695335032e-10
1.431055798e-10
1.183595142e-10
9.572980292e-11
7.563713135e-11
5.850662821e-11
4.466399812e-11
3.419175988e-11
2.687566488e-11
2.228830716e-11
1.989189198e-11
1.904600485e-11
1.904191688e-11
3.235557789e-10
3.222302919e-10
3.17718739e-10
3.085536759e-10
2.941787405e-10
2.747183135e-10
2.510286138e-10
2.245147952e-10
1.967559284e-10
1.691576015e-10
1.42824088e-10
1.184732516e-10
9.65223337e-11
7.724970685e-11
6.090824054e-11
4.768613375e-11
3.76179778e-11
3.052868805e-11
2.607060816e-11
2.377875498e-11
2.303545392e-11
2.311486352e-11
3.255294719e-10
3.24218819e-10
3.196161389e-10
3.102555176e-10
2.956283372e-10
2.759075097e-10
2.519724293e-10
2.252222793e-10
1.972635375e-10
1.695896036e-10
1.433566044e-10
1.193115224e-10
9.786483105e-11
7.923317804e-11
6.355417021e-11
5.090719079e-11
4.127289317e-11
3.448754522e-11
3.025429287e-11
2.815660479e-11
2.758527471e-11
2.779008039e-11
3.275785826e-10
3.262724127e-10
3.215816776e-10
3.120846856e-10
2.97335422e-10
2.775552805e-10
2.536257413e-10
2.269045943e-10
1.989689552e-10
1.713275263e-10
1.451851042e-10
1.213413022e-10
1.002321604e-10
8.205259011e-11
6.687420895e-11
5.470118323e-11
4.546740435e-11
3.900616638e-11
3.505468864e-11
3.321479948e-11
3.287385297e-11
3.324352469e-11
3.296815467e-10
3.283695813e-10
3.236063099e-10
3.140622618e-10
2.993626533e-10
2.797767258e-10
2.561638936e-10
2.298018019e-10
2.021837142e-10
1.747770039e-10
1.488027105e-10
1.251133229e-10
1.041977153e-10
8.62738061e-11
7.139852878e-11
5.954140412e-11
5.06086536e-11
4.44293775e-11
4.076333371e-11
3.920886031e-11
3.913761143e-11
3.970433187e-11
3.31812116e-10
3.304891526e-10
3.256908007e-10
3.162269424e-10
3.017968476e-10
2.827181705e-10
2.598047524e-10
2.342153198e-10
2.073041217e-10
1.80437656e-10
1.548072078e-10
1.313003805e-10
1.104735861e-10
9.260885307e-11
7.780236785e-11
6.603851421e-11
5.722826093e-11
5.120947407e-11
4.776138432e-11
4.646300168e-11
4.666996717e-11
4.745146335e-11
3.3394232e-10
3.326126438e-10
3.278500382e-10
3.186336998e-10
3.047472958e-10
2.86554126e-10
2.648014068e-10
2.404914733e-10
2.147864702e-10
1.888888015e-10
1.639013996e-10
1.407097484e-10
1.199333668e-10
1.019480606e-10
8.69423107e-11
7.497423051e-11
6.600813213e-11
5.992132537e-11
5.65215863e-11
5.537443053e-11
5.581395862e-11
5.680388907e-11
3.360462117e-10
3.347244764e-10
3.301143719e-10
3.213512586e-10
3.083365378e-10
2.914716281e-10
2.714165932e-10
2.489852531e-10
2.251010552e-10
2.007390275e-10
1.768447165e-10
1.542430731e-10
1.335855516e-10
1.153493449e-10
9.985875117e-11
8.731050216e-11
7.778944244e-11
7.126678426e-11
6.760863817e-11
6.639903956e-11
6.694752483e-11
6.81033119e-11
3.381031379e-10
3.368276031e-10
3.325064805e-10
3.244451072e-10
3.126762787e-10
2.976303983e-10
2.7986298e-10
2.599777873e-10
2.386257052e-10
2.164984271e-10
1.943114391e-10
1.727525861e-10
1.524418804e-10
1.339304561e-10
1.17696871e-10
1.041364745e-10
9.353772153e-11
8.604951351e-11
8.165873959e-11
8.002800935e-11
8.045954137e-11
8.168864825e-11
3.400989318e-10
3.38923712e-10
3.350478534e-10
3.279607154e-10
3.178270274e-10
3.050932562e-10
2.901980337e-10
2.735278217e-10
2.554484467e-10
2.363328519e-10
2.166036947e-10
1.967297212e-10
1.772072816e-10
1.585882491e-10
1.414761185e-10
1.2649564e-10
1.142224939e-10
1.050940111e-10
9.932421127e-11
9.674805644e-11
9.671492015e-11
9.786290378e-11
3.420207665e-10
3.410097408e-10
3.37743039e-10
3.318939079e-10
3.23742143e-10
3.137323513e-10
3.0218102e-10
2.892665321e-10
2.750885255e-10
2.597060966e-10
2.432162907e-10
2.258075716e-10
2.077529928e-10
1.894887654e-10
1.716435095e-10
1.550324645e-10
1.40563544e-10
1.290769733e-10
1.211662424e-10
1.169753747e-10
1.160056567e-10
1.168514133e-10
3.438548659e-10
3.430728881e-10
3.405619679e-10
3.361561398e-10
3.302089231e-10
3.231384027e-10
3.151416454e-10
3.062143452e-10
2.962457046e-10
2.850449992e-10
2.724053133e-10
2.582285114e-10
2.424993077e-10
2.254099611e-10
2.074441834e-10
1.894556424e-10
1.726243399e-10
1.582524019e-10
1.474812575e-10
1.409531842e-10
1.384860367e-10
1.387446727e-10
3.455862501e-10
3.450867168e-10
3.434292095e-10
3.405558574e-10
3.368274974e-10
3.325999035e-10
3.279640598e-10
3.227842769e-10
3.168139416e-10
3.09732167e-10
3.011357166e-10
2.906994385e-10
2.78132379e-10
2.633077491e-10
2.463828548e-10
2.279832426e-10
2.093326333e-10
1.921009023e-10
1.780686883e-10
1.686031644e-10
1.640830081e-10
1.634294519e-10
3.471981069e-10
3.470102212e-10
3.462255404e-10
3.448168403e-10
3.430674831e-10
3.412333331e-10
3.393151642e-10
3.371174745e-10
3.343718293e-10
3.307569567e-10
3.258215436e-10
3.191372587e-10
3.102353229e-10
2.987061917e-10
2.843125931e-10
2.671666865e-10
2.48163353e-10
2.290016162e-10
2.119846452e-10
1.993641217e-10
1.923907988e-10
1.905105432e-10
3.486734303e-10
3.4879303e-10
3.488087025e-10
3.486391007e-10
3.484054007e-10
3.482464713e-10
3.481056073e-10
3.477957748e-10
3.471319224e-10
3.459168013e-10
3.437537782e-10
3.402672623e-10
3.349436346e-10
3.272006071e-10
3.165818895e-10
3.025477917e-10
2.853426557e-10
2.661597448e-10
2.47378997e-10
2.320455039e-10
2.225642529e-10
2.192333536e-10
3.499902182e-10
3.503833242e-10
3.510711648e-10
3.518069084e-10
3.525335465e-10
3.532844137e-10
3.539954175e-10
3.544825824e-10
3.546730401e-10
3.54585188e-10
3.539777931e-10
3.526537829e-10
3.502978737e-10
3.463637498e-10
3.39912695e-10
3.301863088e-10
3.168073288e-10
3.000149861e-10
2.815735756e-10
2.647883402e-10
2.532421833e-10
2.484416333e-10
3.511523941e-10
3.517584981e-10
3.529358957e-10
3.542449276e-10
3.554449153e-10
3.565071491e-10
3.574027004e-10
3.58084603e-10
3.585063369e-10
3.58680217e-10
3.586865922e-10
3.583401768e-10
3.575131808e-10
3.559263197e-10
3.530690061e-10
3.48109921e-10
3.396959426e-10
3.272129646e-10
3.115055281e-10
2.952212462e-10
2.826100993e-10
2.766261158e-10
3.521635271e-10
3.52913481e-10
3.544051302e-10
3.560227818e-10
3.573789841e-10
3.584369914e-10
3.59243166e-10
3.598322047e-10
3.602412677e-10
3.605015001e-10
3.60616183e-10
3.606284552e-10
3.604393508e-10
3.599440057e-10
3.58900494e-10
3.568472888e-10
3.529395409e-10
3.458742964e-10
3.345886408e-10
3.208942465e-10
3.08669439e-10
3.02107981e-10
3.530338046e-10
3.538611186e-10
3.555221989e-10
3.57271237e-10
3.586199861e-10
3.595542854e-10
3.602007379e-10
3.606539863e-10
3.609755251e-10
3.612044396e-10
3.613648151e-10
3.61449982e-10
3.614741481e-10
3.613902422e-10
3.611138895e-10
3.604246889e-10
3.589211478e-10
3.557841356e-10
3.497368595e-10
3.400127696e-10
3.296909516e-10
3.23370411e-10
3.5377745e-10
3.546248522e-10
3.563462468e-10
3.581226937e-10
3.594030063e-10
3.601993587e-10
3.607013229e-10
3.610409767e-10
3.612879004e-10
3.614733031e-10
3.616111019e-10
3.617140861e-10
3.617916729e-10
3.61826481e-10
3.618225031e-10
3.616683355e-10
3.612098712e-10
3.600510479e-10
3.574006494e-10
3.521749326e-10
3.44748861e-10
3.394535933e-10
3.544098649e-10
3.552321894e-10
3.569373563e-10
3.586884373e-10
3.598971686e-10
3.605884637e-10
3.609884704e-10
3.612493928e-10
3.614415791e-10
3.615900895e-10
3.617028888e-10
3.617882797e-10
3.618569402e-10
3.619255687e-10
3.619920038e-10
3.62020381e-10
3.619477056e-10
3.616187333e-10
3.606418745e-10
3.58291678e-10
3.540780442e-10
3.502646877e-10
3.549459781e-10
3.557096378e-10
3.573443874e-10
3.590480789e-10
3.602111461e-10
3.608461997e-10
3.611908432e-10
3.614069288e-10
3.615646767e-10
3.616830682e-10
3.617640923e-10
3.618183145e-10
3.61863361e-10
3.619222863e-10
3.620011942e-10
3.620858871e-10
3.621279922e-10
3.621014014e-10
3.618260334e-10
3.609107579e-10
3.588751393e-10
3.565952965e-10
3.554029108e-10
3.560801304e-10
3.576122152e-10
3.59262552e-10
3.604105871e-10
3.61035369e-10
3.613658842e-10
3.615663321e-10
3.617084081e-10
3.618068413e-10
3.618536689e-10
3.618652027e-10
3.618603847e-10
3.61867322e-10
3.619185428e-10
3.620200596e-10
3.621460334e-10
3.622045905e-10
3.621959433e-10
3.619069903e-10
3.610081831e-10
3.598061075e-10
3.557838988e-10
3.563623394e-10
3.577534902e-10
3.593208392e-10
3.604983913e-10
3.611729329e-10
3.615271288e-10
3.617364816e-10
3.618785561e-10
3.619615929e-10
3.619884866e-10
3.619608368e-10
3.618918176e-10
3.61837449e-10
3.618210793e-10
3.618798057e-10
3.620274585e-10
3.6220275e-10
3.62277499e-10
3.622513083e-10
3.618909192e-10
3.612756509e-10
3.560893001e-10
3.565687352e-10
3.57780314e-10
3.592827794e-10
3.604763121e-10
3.612284325e-10
3.616557844e-10
3.618991083e-10
3.620538951e-10
3.62137111e-10
3.621542586e-10
3.620951902e-10
3.619723288e-10
3.618305879e-10
3.617521378e-10
3.617443061e-10
3.618524641e-10
3.620686919e-10
3.622767604e-10
3.623510583e-10
3.622593206e-10
3.619367691e-10
3.563250438e-10
3.567192504e-10
3.577563941e-10
3.591692096e-10
3.603809986e-10
3.611951458e-10
3.617002162e-10
3.620151261e-10
3.622011824e-10
3.62300182e-10
3.623159611e-10
3.622415583e-10
3.620796744e-10
3.61870444e-10
3.616984731e-10
3.61633364e-10
3.61682505e-10
3.618801022e-10
3.621732597e-10
3.623664078e-10
3.624105089e-10
3.622561826e-10
3.56506225e-10
3.568201437e-10
3.576812248e-10
3.589458204e-10
3.601658327e-10
3.610718136e-10
3.616547999e-10
3.620254732e-10
3.622716131e-10
3.624058501e-10
3.624344506e-10
3.6236445e-10
3.621828091e-10
3.619251902e-10
3.616704304e-10
3.615353988e-10
3.615273734e-10
3.616931547e-10
3.620078883e-10
3.623255466e-10
3.624610695e-10
3.624339512e-10
3.566860033e-10
3.568980831e-10
3.575445505e-10
3.586379351e-10
3.59806685e-10
3.60796801e-10
3.614975877e-10
3.619530714e-10
3.622445924e-10
3.624162747e-10
3.624740712e-10
3.624215625e-10
3.622392885e-10
3.619519e-10
3.616537464e-10
3.614438105e-10
3.613877887e-10
3.615152318e-10
3.618329324e-10
3.622237491e-10
3.624684154e-10
3.625288231e-10
3.569863856e-10
3.570557416e-10
3.574518296e-10
3.582805601e-10
3.593281103e-10
3.603316567e-10
3.611493312e-10
3.61734954e-10
3.621150752e-10
3.623444551e-10
3.624339144e-10
3.62402882e-10
3.622481819e-10
3.619527954e-10
3.616201359e-10
3.613581066e-10
3.612596269e-10
3.613557599e-10
3.616710377e-10
3.621032225e-10
3.624412473e-10
3.625644863e-10
3.57607361e-10
3.574557398e-10
3.575651957e-10
3.580130556e-10
3.587898153e-10
3.597041712e-10
3.60566415e-10
3.612751061e-10
3.617979465e-10
3.621319571e-10
3.62288681e-10
3.622840728e-10
3.621642175e-10
3.618849999e-10
3.615440316e-10
3.612660128e-10
3.61143436e-10
3.612217708e-10
3.615338898e-10
3.619908182e-10
3.62389815e-10
3.625694129e-10
3.588729406e-10
3.584608826e-10
3.581354963e-10
3.58206456e-10
3.585596162e-10
3.591255139e-10
3.598417324e-10
3.60581963e-10
3.612199764e-10
3.616914661e-10
3.619682682e-10
3.620337138e-10
3.61960136e-10
3.617382519e-10
3.614205344e-10
3.611547419e-10
3.610444561e-10
3.611430896e-10
3.614588054e-10
3.619141158e-10
3.623388206e-10
3.625607819e-10
3.612907984e-10
3.606837916e-10
3.59941973e-10
3.59358098e-10
3.591484102e-10
3.592517894e-10
3.59540093e-10
3.599784386e-10
3.605437266e-10
3.610900208e-10
3.614836462e-10
3.616657529e-10
3.616504036e-10
3.615134305e-10
3.612515056e-10
3.610302793e-10
3.609789515e-10
3.611169238e-10
3.614348192e-10
3.618825799e-10
3.623106574e-10
3.625492387e-10
3.657057813e-10
3.650004972e-10
3.644448402e-10
3.632759656e-10
3.619697918e-10
3.607561893e-10
3.601462858e-10
3.60107159e-10
3.602392161e-10
3.605595326e-10
3.609642212e-10
3.612346858e-10
3.613005018e-10
3.612328609e-10
3.610581406e-10
3.609152922e-10
3.609572969e-10
3.611387919e-10
3.614533649e-10
3.618786439e-10
3.623022003e-10
3.62544295e-10
3.732140051e-10
3.728490442e-10
3.733657216e-10
3.723969682e-10
3.69726851e-10
3.660284745e-10
3.629196455e-10
3.612004004e-10
3.605587384e-10
3.605378666e-10
3.606372585e-10
3.608614016e-10
3.609782232e-10
3.609585251e-10
3.608721196e-10
3.608655953e-10
3.610027605e-10
3.612769592e-10
3.615698364e-10
3.61938623e-10
3.62320133e-10
3.625488642e-10
3.839394202e-10
3.866299461e-10
3.900670792e-10
3.893514012e-10
3.849109054e-10
3.780778774e-10
3.700565463e-10
3.645656564e-10
3.618572017e-10
3.608876646e-10
3.606764559e-10
3.606861218e-10
3.607443409e-10
3.607532118e-10
3.60759745e-10
3.608930404e-10
3.612269867e-10
3.615464917e-10
3.617900644e-10
3.620801099e-10
3.623890204e-10
3.625751883e-10
3.999626144e-10
4.079606554e-10
4.113924407e-10
4.112331321e-10
4.078192386e-10
3.991681323e-10
3.848764352e-10
3.722291012e-10
3.65173376e-10
3.620675816e-10
3.609888987e-10
3.607155809e-10
3.60643645e-10
3.606503957e-10
3.60771559e-10
3.611653223e-10
3.616606874e-10
3.619459813e-10
3.620855961e-10
3.622683754e-10
3.624884067e-10
3.626159215e-10
4.147482735e-10
4.180277357e-10
4.190480191e-10
4.189349877e-10
4.182092369e-10
4.145091862e-10
4.056585825e-10
3.866671169e-10
3.721850577e-10
3.649092941e-10
3.619463404e-10
3.609555919e-10
3.606847391e-10
3.607040119e-10
3.610542002e-10
3.617895961e-10
3.622903668e-10
3.624363476e-10
3.624090069e-10
3.624604022e-10
3.625845323e-10
3.626459259e-10
4.192922319e-10
4.196987099e-10
4.201248581e-10
4.204927693e-10
4.204178887e-10
4.193338378e-10
4.157696182e-10
4.05630257e-10
3.852353362e-10
3.706538231e-10
3.640843604e-10
3.61671069e-10
3.60927719e-10
3.61026588e-10
3.618410001e-10
3.627556818e-10
3.630519063e-10
3.628730465e-10
3.625980862e-10
3.625727009e-10
3.626266163e-10
3.626481718e-10
4.19130837e-10
4.187270434e-10
4.190362569e-10
4.200135377e-10
4.207056624e-10
4.204085496e-10
4.184009386e-10
4.126957951e-10
3.990137657e-10
3.79732621e-10
3.682568555e-10
3.632861447e-10
3.616248086e-10
3.620263843e-10
3.633268264e-10
3.639991084e-10
3.637451312e-10
3.630371748e-10
3.62649827e-10
3.625944002e-10
3.626025226e-10
3.625956301e-10
4.157020346e-10
4.152625092e-10
4.158556143e-10
4.176204013e-10
4.195473216e-10
4.196099367e-10
4.172309409e-10
4.125549971e-10
4.035877503e-10
3.874472766e-10
3.736070742e-10
3.660876042e-10
3.632168604e-10
3.641588679e-10
3.653873962e-10
3.65046478e-10
3.639950552e-10
3.629620518e-10
3.625838148e-10
3.6244957e-10
3.624293135e-10
3.624592315e-10
4.107293054e-10
4.108388117e-10
4.116095009e-10
4.140837763e-10
4.167365076e-10
4.185408843e-10
4.124916657e-10
4.08527636e-10
4.026609808e-10
3.916485946e-10
3.787023554e-10
3.698504273e-10
3.661543352e-10
3.671186285e-10
3.666911325e-10
3.653746917e-10
3.636807299e-10
3.626768807e-10
3.623135848e-10
3.619983852e-10
3.620295377e-10
3.621990371e-10
4.062514185e-10
4.066729315e-10
4.081000124e-10
4.09850204e-10
4.114983717e-10
4.141739484e-10
3.93735964e-10
4.01215409e-10
3.982390594e-10
3.912777145e-10
3.822179744e-10
3.738032962e-10
3.70126333e-10
3.684638694e-10
3.671238703e-10
3.64956821e-10
3.626139851e-10
3.614265858e-10
3.611478635e-10
3.606438087e-10
3.609404302e-10
3.614205054e-10
4.024971017e-10
4.032647309e-10
4.049586814e-10
4.062702356e-10
4.074306906e-10
4.062345302e-10
3.872652647e-10
3.922639055e-10
3.902617276e-10
3.879181481e-10
3.820864234e-10
3.758718146e-10
3.718784275e-10
3.685797007e-10
3.67345646e-10
3.584575307e-10
3.553617053e-10
3.541980541e-10
3.539249063e-10
3.534309325e-10
3.537216215e-10
3.541920953e-10
3.992049711e-10
4.004133072e-10
4.018428895e-10
4.030534517e-10
4.036285588e-10
3.915299654e-10
3.789628521e-10
3.784039208e-10
3.848605279e-10
3.8179064e-10
3.796968493e-10
3.753182563e-10
3.703098622e-10
3.669666797e-10
3.670187435e-10
3.596698883e-10
3.499165515e-10
3.427183631e-10
3.42102763e-10
3.450127964e-10
3.375453389e-10
3.644258842e-14
3.964829112e-10
3.975552103e-10
3.98755212e-10
3.995994741e-10
3.998000688e-10
3.884313506e-10
3.771587194e-10
3.674235087e-10
3.725096872e-10
3.771118988e-10
3.746019794e-10
3.719553418e-10
3.677142699e-10
3.659245253e-10
3.586066978e-10
3.441909465e-10
3.349470706e-10
3.277131925e-10
3.383489508e-12
7.058962533e-14
3.733897198e-15
3.966556452e-18
3.941052726e-10
3.952436684e-10
3.961592852e-10
3.967251857e-10
3.948640506e-10
3.838996411e-10
3.729156075e-10
3.540502882e-10
3.562948123e-10
3.643830707e-10
3.706152469e-10
3.679801959e-10
3.652677758e-10
3.650270884e-10
3.577245974e-10
3.439604665e-10
3.354992362e-10
3.278389026e-10
2.795718356e-12
1.899881262e-16
1.679033993e-19
4.461127108e-22
3.920263492e-10
3.931012311e-10
3.937493285e-10
3.939993091e-10
3.842934138e-10
3.745176674e-10
3.642519937e-10
3.424619905e-10
3.320377759e-10
3.384461229e-10
3.612135093e-10
3.678646121e-10
3.651976683e-10
3.648295641e-10
3.556944374e-10
3.461483677e-10
3.382212759e-10
3.197683954e-10
7.959642411e-13
4.961641774e-17
3.641862535e-21
4.699997548e-25
3.901611056e-10
3.911227444e-10
3.915412528e-10
3.913498444e-10
3.825757965e-10
3.733957366e-10
3.635235251e-10
3.522563564e-10
3.253673688e-10
3.317375099e-10
3.532604411e-10
3.603222678e-10
3.578602488e-10
3.574921766e-10
3.483217312e-10
3.377123413e-10
3.295951754e-10
2.073029781e-10
1.015939171e-13
6.243492986e-18
4.729837733e-22
5.551212372e-26
3.884419597e-10
3.893273908e-10
3.894152673e-10
3.813814697e-10
3.735338286e-10
3.654851104e-10
3.56390698e-10
3.446329316e-10
3.178775456e-10
3.251212721e-10
3.45882636e-10
3.531145459e-10
3.506863684e-10
3.500936242e-10
3.413067681e-10
3.306775484e-10
2.139751759e-10
2.176665294e-12
1.634335157e-16
1.072487593e-20
8.286793353e-25
7.18034345e-29
3.868494607e-10
3.874713835e-10
3.87567357e-10
3.793414066e-10
3.716810102e-10
3.594586047e-10
3.478730879e-10
2.943520525e-10
2.586214603e-10
2.948335983e-10
3.120191688e-10
3.135423044e-10
3.405048075e-10
3.351427596e-10
2.09460318e-10
4.665095096e-11
2.019127553e-12
5.658811478e-16
8.904361962e-20
7.009917055e-24
5.811056461e-28
4.219406201e-32
3.85339581e-10
3.855773064e-10
3.85650542e-10
3.778605267e-10
3.703017885e-10
3.6206985e-10
1.243476512e-12
7.572230714e-12
1.556256302e-10
2.619324008e-10
2.910627059e-10
2.768832628e-10
2.227436807e-10
3.346176684e-11
2.521082139e-12
5.582309388e-14
1.316426669e-16
1.48317041e-19
2.54079387e-23
2.650923846e-27
2.552697994e-31
1.384105842e-35
3.83924665e-10
3.835406453e-10
3.835150309e-10
3.758301888e-10
3.683128035e-10
3.529019092e-10
4.431076022e-13
4.610267927e-14
1.00609469e-11
8.36289739e-11
1.374968625e-10
1.361346233e-10
5.927375185e-12
2.799166727e-13
1.511074976e-14
1.327820632e-16
1.106551481e-19
4.23544359e-23
6.972894739e-27
8.974537889e-31
9.586890024e-35
4.058143877e-39
3.825919084e-10
3.811940581e-10
3.81104362e-10
3.734803347e-10
3.660094421e-10
2.644102496e-11
1.941570774e-14
0
0
7.108912863e-13
4.742504726e-12
9.248629669e-13
1.293270721e-13
5.847537792e-15
1.047106858e-16
4.344077781e-19
2.854477484e-22
5.5275168e-26
6.343163818e-30
7.048952264e-34
6.061222014e-38
1.900963927e-42
3.817645446e-10
3.786310946e-10
3.784367753e-10
3.7086799e-10
3.588813861e-10
1.679573214e-11
0
2.335292993e-19
0
6.6078727e-15
7.841659687e-14
5.944738917e-15
1.467240533e-15
7.46323781e-17
6.738303907e-19
1.41017657e-21
7.423870407e-25
1.390628359e-28
1.4991011e-32
1.435880418e-36
8.207087413e-41
1.18818883e-45
3.810305375e-10
3.741625018e-10
3.740307373e-10
3.665501224e-10
3.51572724e-10
4.656633077e-12
3.273713923e-16
0
6.364257031e-19
5.705488274e-17
7.906790016e-16
5.511052606e-17
1.47395751e-17
6.080299541e-19
3.125918431e-21
4.060568864e-24
1.818579452e-27
3.060768598e-31
3.267077608e-35
2.643077867e-39
1.136095046e-43
1.31550952e-48
3.796286106e-10
3.693766759e-10
3.685843092e-10
3.61212623e-10
3.167196834e-10
2.169606966e-12
4.19220068e-16
0
4.653273382e-21
5.412440954e-19
7.205847884e-18
5.254765133e-19
1.337329365e-19
3.78554332e-21
1.185347981e-23
1.102585284e-26
4.21498288e-30
5.983658688e-34
5.843285616e-38
3.388265491e-42
5.742727777e-47
1.035233476e-52
3.761471121e-10
3.633390205e-10
3.611698678e-10
3.539464704e-10
2.886176021e-10
3.509702024e-13
0
1.230748468e-19
0
5.332979644e-21
6.537390952e-20
5.037768737e-21
1.293895355e-21
2.1686748e-23
4.245793284e-26
2.849492876e-29
8.440760983e-33
9.804113141e-37
7.430136643e-41
2.857446531e-45
3.314380139e-50
2.48164735e-56
3.712634485e-10
3.481377588e-10
3.460770691e-10
3.391555277e-10
1.191113051e-10
7.00122898e-14
4.740082338e-18
0
1.106764089e-24
6.528396228e-23
6.412217906e-22
4.581821341e-23
4.020911934e-24
6.993805413e-26
1.017998525e-28
5.023457636e-32
1.060354108e-35
9.651203094e-40
4.589856997e-44
5.739310765e-49
3.712670585e-55
4.440175951e-61
3.62058408e-10
3.356338184e-10
3.332776736e-10
3.266121201e-10
7.336488538e-11
2.734431865e-14
0
6.194106032e-22
1.245353611e-25
2.820863264e-25
1.885792614e-24
2.290652362e-25
3.595883603e-27
1.421220209e-28
1.534776608e-31
5.411023763e-35
7.785675578e-39
4.931995078e-43
1.373369542e-47
1.119149007e-52
6.970212755e-58
7.322347214e-63
3.564693886e-10
3.236577354e-10
3.209657628e-10
3.145464475e-10
9.890477195e-12
6.005263895e-16
7.267253122e-21
1.505690216e-24
1.267698485e-27
1.932096847e-28
2.273457094e-27
7.945438264e-28
6.504186628e-30
1.814164503e-31
1.457893371e-34
3.61358691e-38
3.341119669e-42
1.351751828e-46
1.945068118e-51
1.262847776e-56
1.559186206e-61
2.528953188e-66
3.464897339e-10
3.103126125e-10
3.075611768e-10
3.014099533e-10
3.999261477e-13
1.293020999e-16
5.532811148e-20
2.369296327e-23
1.659475464e-26
1.218848262e-29
4.722627126e-30
1.913015158e-30
1.060053989e-32
1.45790799e-34
8.448455596e-38
1.402395689e-41
7.529836755e-46
1.078972966e-50
7.626189307e-56
1.009914426e-60
1.336088278e-65
1.827411637e-70
3.260934859e-10
2.984091929e-10
2.961366908e-10
2.90213957e-10
1.860564278e-13
1.15316364e-16
7.710848559e-20
5.446996185e-23
4.602718832e-26
3.861980273e-29
4.060976276e-32
3.018211331e-33
1.15466814e-35
7.038186997e-38
2.714320424e-41
2.657751833e-45
6.218851904e-50
4.954696915e-55
6.052619211e-60
8.002587398e-65
1.05141038e-69
1.802749271e-74
3.326664935e-10
2.88646809e-10
2.856262487e-10
2.799137237e-10
1.808990065e-13
1.569655149e-16
1.312721525e-19
1.08415565e-22
9.334655336e-26
7.539439497e-29
5.401781557e-32
3.395442956e-35
1.974523413e-38
2.172890208e-41
4.641890708e-45
2.631439006e-49
5.773989171e-54
8.882845004e-59
1.242485363e-63
1.51246865e-68
1.796547669e-73
3.11827788e-78
3.030441121e-10
2.665273214e-10
2.641331635e-10
2.588505002e-10
3.31447592e-13
3.644309328e-16
3.421279318e-19
2.914149079e-22
2.371286836e-25
1.697030916e-28
9.978024398e-32
4.368624627e-35
1.290178892e-38
2.359828693e-42
1.858042037e-46
1.790139588e-51
1.365471478e-56
2.063367719e-61
2.806274e-66
3.251644037e-71
3.539213623e-76
5.774706254e-81
2.729156143e-10
2.449571919e-10
2.428513579e-10
2.379943307e-10
2.989686472e-13
3.822081849e-16
3.919502536e-19
3.375435036e-22
2.619475534e-25
1.701154996e-28
8.590775923e-32
3.038448769e-35
6.628373418e-39
6.886401507e-43
2.410383742e-47
4.799198862e-52
7.837182441e-57
1.220072284e-61
1.694227325e-66
1.957029054e-71
2.001231009e-76
3.279062806e-81
2.72372183e-10
2.318903283e-10
2.287655228e-10
2.241902124e-10
2.665450316e-13
3.647201937e-16
4.031068848e-19
3.519061971e-22
2.689772197e-25
1.680009238e-28
7.93382376e-32
2.550076112e-35
5.092321191e-39
5.633910615e-43
2.07019372e-47
1.715110353e-52
2.8993026e-57
4.672242647e-62
6.67001654e-67
7.741024211e-72
7.220989546e-77
1.129969479e-81
2.337241064e-10
2.07429052e-10
2.054842914e-10
2.013746055e-10
3.884202326e-13
8.332150154e-16
9.734485905e-19
9.051210336e-22
6.949175356e-25
4.340731389e-28
2.15889458e-31
7.16516867e-35
1.392901731e-38
1.765577121e-42
1.168835076e-46
2.072401829e-51
3.733071511e-56
6.22154627e-61
9.131203877e-66
1.079300784e-70
9.481762041e-76
1.383037398e-80
2.158691333e-10
1.94716726e-10
1.931722944e-10
1.893088485e-10
2.875798914e-13
5.113933079e-16
6.186488621e-19
5.697578022e-22
4.432052927e-25
2.811649005e-28
1.383122038e-31
4.485937859e-35
8.132241826e-39
5.455428825e-43
7.217036853e-48
1.327926409e-52
2.398750176e-57
4.214973452e-62
6.352318188e-67
7.572094764e-72
7.032435018e-77
1.005426121e-81
2.006412142e-10
1.871162172e-10
1.845651622e-10
1.80873859e-10
2.361062557e-13
3.643052439e-16
4.478388414e-19
3.999202736e-22
3.148187103e-25
2.029650243e-28
9.643657134e-32
3.024033551e-35
7.017336192e-39
8.464686595e-43
1.206371002e-47
2.283016393e-52
4.245050798e-57
7.55291184e-62
1.165572393e-66
1.401903828e-71
1.27983817e-76
1.707260676e-81
1.975568067e-10
1.694234637e-10
1.665160167e-10
1.631856964e-10
1.436598706e-13
1.918026577e-16
2.341857077e-19
2.086562683e-22
1.655205282e-25
1.082078966e-28
5.208909956e-32
1.721487106e-35
4.228289983e-39
6.622231376e-43
3.718071173e-47
7.213438063e-52
1.375736466e-56
2.521115907e-61
3.984290247e-66
4.840216553e-71
4.34403773e-76
5.371523408e-81
1.760742389e-10
1.588156402e-10
1.564070427e-10
1.532789019e-10
1.536907063e-13
1.849193136e-16
2.211110523e-19
1.951283825e-22
1.552468857e-25
1.02700233e-28
5.031297061e-32
1.823103297e-35
4.439219006e-39
4.219226904e-43
1.077993762e-47
2.13362924e-52
4.146341042e-57
7.79286406e-62
1.264469032e-66
1.559581438e-71
1.37887547e-76
1.544137545e-81
1.841532189e-10
1.546128404e-10
1.50929046e-10
1.479104651e-10
1.099915596e-13
1.334670489e-16
1.573723252e-19
1.424176727e-22
1.968430057e-25
2.487167473e-28
1.396071305e-31
6.166231779e-35
1.944025858e-38
2.826931439e-42
5.95934634e-47
1.19444395e-51
2.341715444e-56
4.481156594e-61
7.477787597e-66
9.420529983e-71
8.242268924e-76
7.864057823e-81
1.612178718e-10
1.387645518e-10
1.359731932e-10
1.332537294e-10
2.5271885e-13
6.57854064e-16
7.646737185e-19
7.036084299e-22
1.004866674e-24
1.321920436e-27
8.961828636e-31
4.915525906e-34
1.476589966e-37
1.866065506e-41
2.35200323e-46
4.731468286e-51
9.262318486e-56
1.789521054e-60
3.064383042e-65
3.953306392e-70
3.442059368e-75
2.71035975e-80
1.457528646e-10
1.293728523e-10
1.269027784e-10
1.243647228e-10
1.18426026e-13
1.384964078e-16
1.629288216e-19
1.561935035e-22
2.097429386e-25
2.495979611e-28
1.899868862e-31
1.149042126e-34
2.692343422e-38
2.249888327e-42
6.258747896e-47
1.249725244e-51
2.422836908e-56
4.687886091e-61
8.176277534e-66
1.076685165e-70
9.382501659e-76
8.169598202e-81
1.46570767e-10
1.237449466e-10
1.207695931e-10
1.183542012e-10
1.269338092e-13
1.776486723e-16
2.347298809e-19
3.140845602e-22
5.042583896e-25
5.393511401e-28
4.137093408e-31
3.206255436e-34
1.32979139e-37
1.215930546e-41
2.877670712e-46
5.647786748e-51
1.081736409e-55
2.086175268e-60
3.667471642e-65
4.892389858e-70
4.266088639e-75
3.297184542e-80
1.273038262e-10
1.10181647e-10
1.07829092e-10
1.056725102e-10
1.368492948e-13
2.618072703e-16
3.95660977e-19
6.441026363e-22
1.182222384e-24
1.257845829e-27
9.567036714e-31
6.38529179e-34
2.287794053e-37
2.709995424e-41
6.805903019e-46
1.30721912e-50
2.49157055e-55
4.79988715e-60
8.42008586e-65
1.126203451e-69
9.847243575e-75
6.261593032e-80
1.209696732e-10
1.011802705e-10
9.862315546e-11
9.665069235e-11
1.104028973e-13
1.842130005e-16
2.851713767e-19