/*--------------------------------*- C++ -*----------------------------------*\
  =========                 |
  \\      /  F ield         | OpenFOAM: The Open Source CFD Toolbox
   \\    /   O peration     | Website:  https://openfoam.org
    \\  /    A nd           | Version:  9
     \\/     M anipulation  |
\*---------------------------------------------------------------------------*/
FoamFile
{
    format      ascii;
    class       volScalarField;
    location    "10";
    object      F3BeLi.gas;
}
// * * * * * * * * * * * * * * * * * * * * * * * * * * * * * * * * * * * * * //

dimensions      [0 0 0 0 0 0 0];

internalField   nonuniform List<scalar> 
2215
(
6.888014522e-08
6.854965945e-08
6.772826192e-08
6.622067286e-08
6.388074557e-08
6.063366059e-08
5.647682012e-08
5.144180806e-08
4.552966751e-08
3.863808864e-08
3.048341126e-08
2.050398232e-08
7.428832044e-09
2.933552287e-09
1.220806231e-09
5.331932677e-10
2.508784423e-10
1.342651123e-10
8.845665655e-11
7.645596485e-11
8.36683369e-11
9.956457501e-11
6.907871844e-08
6.878669127e-08
6.798956398e-08
6.646014871e-08
6.404992427e-08
6.070267955e-08
5.645213877e-08
5.137691293e-08
4.553175899e-08
3.8890868e-08
3.130939936e-08
2.27284416e-08
1.365852768e-08
7.535378562e-09
3.962553768e-09
2.047396696e-09
1.079410717e-09
6.126254265e-10
4.026251159e-10
3.266460464e-10
3.229431383e-10
3.487957816e-10
6.937426293e-08
6.909970926e-08
6.829408044e-08
6.671098969e-08
6.420694041e-08
6.074079421e-08
5.637459766e-08
5.123326128e-08
4.543207742e-08
3.901342989e-08
3.201154489e-08
2.445514627e-08
1.68966136e-08
1.070941282e-08
6.365951973e-09
3.647983681e-09
2.08910788e-09
1.256251996e-09
8.46731942e-10
6.778967581e-10
6.431828324e-10
6.668334673e-10
6.971534397e-08
6.944463689e-08
6.861706377e-08
6.697095977e-08
6.436425138e-08
6.076702497e-08
5.626618885e-08
5.103002529e-08
4.523241862e-08
3.898963469e-08
3.23704619e-08
2.551104463e-08
1.876415891e-08
1.285588252e-08
8.288775473e-09
5.13339902e-09
3.150450963e-09
2.002477318e-09
1.396266395e-09
1.123915803e-09
1.047185758e-09
1.06196119e-09
7.008087337e-08
6.980901475e-08
6.895500853e-08
6.724183836e-08
6.45270258e-08
6.079042558e-08
5.614090033e-08
5.078706884e-08
4.495173769e-08
3.880703414e-08
3.246530507e-08
2.607301593e-08
1.987150201e-08
1.430314107e-08
9.767673125e-09
6.42491387e-09
4.179624632e-09
2.795880318e-09
2.022148353e-09
1.65262591e-09
1.53239493e-09
1.536040325e-09
7.046380931e-08
7.018995816e-08
6.930842999e-08
6.75267726e-08
6.470152304e-08
6.082196635e-08
5.60160461e-08
5.053193124e-08
4.463010318e-08
3.852939485e-08
3.2380129e-08
2.63122643e-08
2.051756174e-08
1.527739681e-08
1.08876362e-08
7.513517272e-09
5.13578205e-09
3.598556371e-09
2.699654795e-09
2.251331035e-09
2.093986457e-09
2.088001438e-09
7.086283963e-08
7.058766145e-08
6.96786999e-08
6.782852385e-08
6.489435414e-08
6.087575295e-08
5.59187344e-08
5.029527479e-08
4.430906526e-08
3.821317632e-08
3.218773934e-08
2.636235331e-08
2.088213437e-08
1.59377165e-08
1.173900029e-08
8.425234732e-09
6.009795033e-09
4.391537769e-09
3.413214394e-09
2.910921304e-09
2.728342786e-09
2.717191534e-09
7.127837949e-08
7.100255204e-08
7.006616323e-08
6.814865324e-08
6.511055008e-08
6.096315943e-08
5.587728638e-08
5.01130081e-08
4.403128702e-08
3.791535998e-08
3.19673919e-08
2.632142464e-08
2.108947427e-08
1.640337388e-08
1.240638585e-08
9.202891119e-09
6.814236547e-09
5.173083673e-09
4.157977523e-09
3.628787768e-09
3.436109452e-09
3.426427583e-09
7.171062484e-08
7.143406759e-08
7.04697566e-08
6.848773314e-08
6.535438635e-08
6.109046184e-08
5.587892532e-08
5.002995771e-08
4.386104436e-08
3.770699488e-08
3.179946063e-08
2.627815444e-08
2.123912198e-08
1.677231431e-08
1.296882441e-08
9.898205741e-09
7.576871805e-09
5.956169959e-09
4.940723929e-09
4.411000143e-09
4.224764854e-09
4.224668517e-09
7.215861962e-08
7.188021383e-08
7.08872284e-08
6.884610224e-08
6.563255757e-08
6.127677071e-08
5.596993567e-08
5.002740002e-08
4.380806419e-08
3.76301963e-08
3.174370726e-08
2.63097488e-08
2.141989056e-08
1.713355508e-08
1.35039043e-08
1.057009183e-08
8.337899318e-09
6.767300194e-09
5.780528646e-09
5.274108155e-09
5.110754256e-09
5.129283385e-09
7.261988108e-08
7.233754099e-08
7.131539181e-08
6.92241413e-08
6.595251014e-08
6.154018508e-08
5.618229676e-08
5.019159159e-08
4.393012949e-08
3.773603663e-08
3.187115164e-08
2.65035928e-08
2.172398112e-08
1.757825416e-08
1.409422e-08
1.128699963e-08
9.15041747e-09
7.646906408e-09
6.709939556e-09
6.246615543e-09
6.121492157e-09
6.167916556e-09
7.30904728e-08
7.2801627e-08
7.175121938e-08
6.962385634e-08
6.632393114e-08
6.190071139e-08
5.654843273e-08
5.056906786e-08
4.431662678e-08
3.813184953e-08
3.228737582e-08
2.696350014e-08
2.22571649e-08
1.820998077e-08
1.483544624e-08
1.213215776e-08
1.00835991e-08
8.6514987e-09
7.776822442e-09
7.370626966e-09
7.296641039e-09
7.379693447e-09
7.356537051e-08
7.326778811e-08
7.219306429e-08
7.005046254e-08
6.676114849e-08
6.238422941e-08
5.710766156e-08
5.121403319e-08
4.503728228e-08
3.89079951e-08
3.310214255e-08
2.781210576e-08
2.314721892e-08
1.915485133e-08
1.584571948e-08
1.321099471e-08
1.122810925e-08
9.85783949e-09
9.04607856e-09
8.703013446e-09
8.688824361e-09
8.815623084e-09
7.403899405e-08
7.37318665e-08
7.264192605e-08
7.051323397e-08
6.728406631e-08
6.302369288e-08
5.790861759e-08
5.219354268e-08
4.618012535e-08
4.017544827e-08
3.444835709e-08
2.91991696e-08
2.455280877e-08
2.057160354e-08
1.727559851e-08
1.465965931e-08
1.270245375e-08
1.136673577e-08
1.060266534e-08
1.031603261e-08
1.036346028e-08
1.053791764e-08
7.450583188e-08
7.419070194e-08
7.310227894e-08
7.102544356e-08
6.791807776e-08
6.385884368e-08
5.900817735e-08
5.358479495e-08
4.78464704e-08
4.206272727e-08
3.64820588e-08
3.130417886e-08
2.66684306e-08
2.265865804e-08
1.931610049e-08
1.665252874e-08
1.465876756e-08
1.330645375e-08
1.255207533e-08
1.229840366e-08
1.239718807e-08
1.261787429e-08
7.496119473e-08
7.464217055e-08
7.358228908e-08
7.16041074e-08
6.869240861e-08
6.493328069e-08
6.046647861e-08
5.546788799e-08
5.01414255e-08
4.470519083e-08
3.937191308e-08
3.432746685e-08
2.971840705e-08
2.565160518e-08
2.219913743e-08
1.940418676e-08
1.728480228e-08
1.583373597e-08
1.502051858e-08
1.475208688e-08
1.487463926e-08
1.513207427e-08
7.540180093e-08
7.508856365e-08
7.408893896e-08
7.226639125e-08
6.963526051e-08
6.62864057e-08
6.233476004e-08
5.790885371e-08
5.315172664e-08
4.821804967e-08
4.326882385e-08
3.845899319e-08
3.392799286e-08
2.979934679e-08
2.617988961e-08
2.315752348e-08
2.07960653e-08
1.91281318e-08
1.815030119e-08
1.778711145e-08
1.788308906e-08
1.815669035e-08
7.582605427e-08
7.553208082e-08
7.462954871e-08
7.302618498e-08
7.076540977e-08
6.793892491e-08
6.463348309e-08
6.092872191e-08
5.690447006e-08
5.264462617e-08
4.824496248e-08
4.381154773e-08
3.945625145e-08
3.530282421e-08
3.148612348e-08
2.814548918e-08
2.540904072e-08
2.337389759e-08
2.208740796e-08
2.151262813e-08
2.150459889e-08
2.176002202e-08
7.623276434e-08
7.597405424e-08
7.520826613e-08
7.388763722e-08
7.208008651e-08
6.987268905e-08
6.732182475e-08
6.446002478e-08
6.130820871e-08
5.788088066e-08
5.420173234e-08
5.031493576e-08
4.628325215e-08
4.220510011e-08
3.822122572e-08
3.45138743e-08
3.128539387e-08
2.872268248e-08
2.695762117e-08
2.602209984e-08
2.580497226e-08
2.599303242e-08
7.662046105e-08
7.641369808e-08
7.582192221e-08
7.483705804e-08
7.354132646e-08
7.20098981e-08
7.026799454e-08
6.830608356e-08
6.609818901e-08
6.360332296e-08
6.077782703e-08
5.760286244e-08
5.40787787e-08
5.02511231e-08
4.622920048e-08
4.220552567e-08
3.844375204e-08
3.523352292e-08
3.282832339e-08
3.137056246e-08
3.081922683e-08
3.08764488e-08
7.698717579e-08
7.684696229e-08
7.645704293e-08
7.583745686e-08
7.506900517e-08
7.420505633e-08
7.324093979e-08
7.213596908e-08
7.083325379e-08
6.926167331e-08
6.733376864e-08
6.49794081e-08
6.214069965e-08
5.879520724e-08
5.498013922e-08
5.084210351e-08
4.665717333e-08
4.279747249e-08
3.965824717e-08
3.754215148e-08
3.653179638e-08
3.638540134e-08
7.733008666e-08
7.726582904e-08
7.708907605e-08
7.68300565e-08
7.654890515e-08
7.626692707e-08
7.595027852e-08
7.554399943e-08
7.498762287e-08
7.420400954e-08
7.309738222e-08
7.156794235e-08
6.952175804e-08
6.68799311e-08
6.358758822e-08
5.968661816e-08
5.538631392e-08
5.106826912e-08
4.724519617e-08
4.441558869e-08
4.285374742e-08
4.243236204e-08
7.764568551e-08
7.765901299e-08
7.768546467e-08
7.774430274e-08
7.785724316e-08
7.800999508e-08
7.813708834e-08
7.8186529e-08
7.813765369e-08
7.791363281e-08
7.74494941e-08
7.663609717e-08
7.536716294e-08
7.354424497e-08
7.104535578e-08
6.77793291e-08
6.382214135e-08
5.944781925e-08
5.519246295e-08
5.173372714e-08
4.960044723e-08
4.885090694e-08
7.793061358e-08
7.801462631e-08
7.821414143e-08
7.85176883e-08
7.889594946e-08
7.929859002e-08
7.966574216e-08
7.995825902e-08
8.011151082e-08
8.015645371e-08
8.007161681e-08
7.979016776e-08
7.921583313e-08
7.82184332e-08
7.66162256e-08
7.425282463e-08
7.10845225e-08
6.717156083e-08
6.292641815e-08
5.909685642e-08
5.647648353e-08
5.538803504e-08
7.818283773e-08
7.832353619e-08
7.865297656e-08
7.911788055e-08
7.963705008e-08
8.013449824e-08
8.055442894e-08
8.087374643e-08
8.109669012e-08
8.122185923e-08
8.126793692e-08
8.124064807e-08
8.106948468e-08
8.068826269e-08
7.996742266e-08
7.86754612e-08
7.653004177e-08
7.350856747e-08
6.978904581e-08
6.599730546e-08
6.309132004e-08
6.171704103e-08
7.840212586e-08
7.858188075e-08
7.899557918e-08
7.954863556e-08
8.011792654e-08
8.061697673e-08
8.100614385e-08
8.128656409e-08
8.148083581e-08
8.161821041e-08
8.171763591e-08
8.176911187e-08
8.178191191e-08
8.170332915e-08
8.147923352e-08
8.095284784e-08
7.991226187e-08
7.802222237e-08
7.521489368e-08
7.191073354e-08
6.901858015e-08
6.747939473e-08
7.858989092e-08
7.879066137e-08
7.924774445e-08
7.983441819e-08
8.039958354e-08
8.085793282e-08
8.11905422e-08
8.141990473e-08
8.158139451e-08
8.170349783e-08
8.180579467e-08
8.189344353e-08
8.197011684e-08
8.201254927e-08
8.201797708e-08
8.188661e-08
8.150875783e-08
8.063584251e-08
7.8940092e-08
7.644569408e-08
7.38925618e-08
7.235661501e-08
7.874883908e-08
7.895426372e-08
7.942157361e-08
8.000484824e-08
8.053758042e-08
8.093921183e-08
8.121150641e-08
8.139823116e-08
8.152815233e-08
8.163088857e-08
8.172930832e-08
8.183560899e-08
8.194992136e-08
8.205789915e-08
8.214099942e-08
8.217616939e-08
8.211744074e-08
8.182576434e-08
8.104200229e-08
7.949227759e-08
7.751477547e-08
7.61505441e-08
7.888252411e-08
7.907916547e-08
7.953185064e-08
8.008823861e-08
8.057465693e-08
8.092821833e-08
8.116446888e-08
8.130057992e-08
8.138143055e-08
8.144833492e-08
8.152316311e-08
8.162150657e-08
8.175265607e-08
8.191502469e-08
8.209055002e-08
8.222563583e-08
8.228342397e-08
8.226573918e-08
8.200416845e-08
8.124553887e-08
7.992026801e-08
7.884071158e-08
7.899496784e-08
7.917258322e-08
7.959220742e-08
8.010585068e-08
8.055739373e-08
8.08774756e-08
8.106052183e-08
8.115449349e-08
8.120340311e-08
8.124044466e-08
8.128870534e-08
8.136623265e-08
8.148632227e-08
8.165549754e-08
8.18698768e-08
8.210929508e-08
8.23017665e-08
8.238042869e-08
8.237153115e-08
8.208721395e-08
8.134334293e-08
8.057824379e-08
7.909104326e-08
7.924160575e-08
7.961838876e-08
8.008989844e-08
8.050682836e-08
8.078589359e-08
8.093938272e-08
8.100867216e-08
8.103679562e-08
8.105257072e-08
8.107894266e-08
8.113410216e-08
8.123387022e-08
8.139049315e-08
8.160773589e-08
8.187522919e-08
8.216737753e-08
8.239142308e-08
8.24774725e-08
8.244274009e-08
8.210474511e-08
8.161358581e-08
7.917353705e-08
7.929391014e-08
7.961657904e-08
8.004732586e-08
8.042505598e-08
8.068254422e-08
8.082172315e-08
8.088009079e-08
8.089777914e-08
8.090218781e-08
8.091318961e-08
8.094797795e-08
8.102374163e-08
8.11581706e-08
8.136354727e-08
8.16366736e-08
8.195438248e-08
8.227993632e-08
8.249423048e-08
8.256673607e-08
8.247395999e-08
8.219568426e-08
7.924480944e-08
7.933654688e-08
7.960525305e-08
7.998167115e-08
8.032926527e-08
8.05744055e-08
8.071168785e-08
8.077168272e-08
8.078896953e-08
8.079015378e-08
8.079251192e-08
8.081101937e-08
8.086280256e-08
8.096969769e-08
8.115307125e-08
8.141977599e-08
8.175070738e-08
8.21079383e-08
8.243255444e-08
8.259694508e-08
8.26348419e-08
8.251080858e-08
7.930821967e-08
7.937307179e-08
7.958292553e-08
7.990683116e-08
8.022485921e-08
8.046363863e-08
8.060755843e-08
8.067766963e-08
8.07034239e-08
8.070839958e-08
8.070832723e-08
8.071580712e-08
8.074677305e-08
8.082532877e-08
8.098092119e-08
8.123126432e-08
8.156364324e-08
8.194042686e-08
8.231388287e-08
8.258851793e-08
8.269317588e-08
8.267409075e-08
7.937313338e-08
7.940865969e-08
7.955738866e-08
7.982751973e-08
8.011404657e-08
8.034792772e-08
8.050328422e-08
8.058994696e-08
8.063038328e-08
8.064505044e-08
8.064806246e-08
8.065016169e-08
8.066559282e-08
8.071872361e-08
8.084549375e-08
8.107477653e-08
8.140149311e-08
8.178688987e-08
8.218624583e-08
8.252930002e-08
8.270715697e-08
8.275205006e-08
7.946708649e-08
7.946335388e-08
7.955349228e-08
7.975227386e-08
8.000061222e-08
8.022545598e-08
8.039217869e-08
8.049858225e-08
8.055831255e-08
8.058750101e-08
8.059851613e-08
8.060081855e-08
8.060724926e-08
8.064044463e-08
8.074133433e-08
8.094852e-08
8.12638943e-08
8.164941122e-08
8.206762257e-08
8.245472501e-08
8.270124432e-08
8.278473335e-08
7.964318635e-08
7.957409608e-08
7.95874899e-08
7.969663224e-08
7.988878973e-08
8.009432887e-08
8.026810475e-08
8.039433381e-08
8.047619731e-08
8.052397139e-08
8.054758916e-08
8.055537295e-08
8.055957263e-08
8.058148524e-08
8.066167698e-08
8.085031558e-08
8.115366475e-08
8.153255055e-08
8.195840597e-08
8.237828714e-08
8.267745227e-08
8.279539927e-08
7.997299088e-08
7.981792671e-08
7.970741686e-08
7.972781183e-08
7.982342972e-08
7.997090984e-08
8.01303216e-08
8.026911994e-08
8.037385377e-08
8.044413257e-08
8.048531539e-08
8.050421069e-08
8.051203949e-08
8.053217759e-08
8.060200748e-08
8.077645843e-08
8.10699784e-08
8.143697626e-08
8.186236728e-08
8.230668165e-08
8.264916793e-08
8.279811067e-08
8.048451023e-08
8.027930019e-08
8.002001153e-08
7.988207852e-08
7.98803252e-08
7.993649907e-08
8.003643555e-08
8.014854646e-08
8.025783531e-08
8.034656567e-08
8.040788514e-08
8.044314107e-08
8.046090191e-08
8.048637071e-08
8.055678817e-08
8.072844207e-08
8.101277553e-08
8.136417357e-08
8.178390649e-08
8.224588599e-08
8.262294842e-08
8.27993494e-08
8.103422807e-08
8.085317822e-08
8.05683596e-08
8.029401607e-08
8.011185343e-08
8.004108371e-08
8.005988506e-08
8.011259855e-08
8.018449699e-08
8.026221863e-08
8.033099137e-08
8.038004644e-08
8.041074269e-08
8.044562006e-08
8.052598539e-08
8.070632278e-08
8.098350124e-08
8.131512199e-08
8.172732692e-08
8.220636979e-08
8.2608457e-08
8.280326954e-08
8.126534108e-08
8.118472224e-08
8.099047688e-08
8.077152364e-08
8.057570917e-08
8.037217881e-08
8.022440744e-08
8.017811978e-08
8.019544015e-08
8.023769732e-08
8.028813358e-08
8.033556921e-08
8.037347981e-08
8.041885622e-08
8.051294307e-08
8.070190631e-08
8.097318456e-08
8.12911737e-08
8.17003219e-08
8.219013331e-08
8.260400041e-08
8.28114899e-08
8.098223096e-08
8.100057512e-08
8.090210088e-08
8.079061923e-08
8.069930376e-08
8.058541991e-08
8.048580891e-08
8.037209381e-08
8.028391039e-08
8.027112173e-08
8.02912061e-08
8.032692818e-08
8.036215366e-08
8.041448053e-08
8.052229565e-08
8.072554359e-08
8.098258815e-08
8.128301766e-08
8.169255606e-08
8.219169573e-08
8.262053839e-08
8.283162821e-08
8.058664823e-08
8.068707579e-08
8.06727122e-08
8.059084405e-08
8.047079593e-08
8.042837542e-08
8.044893008e-08
8.043644643e-08
8.040972205e-08
8.036176732e-08
8.033105575e-08
8.034280072e-08
8.037186429e-08
8.043171143e-08
8.056026314e-08
8.077237936e-08
8.100709115e-08
8.129955744e-08
8.173199351e-08
8.225307727e-08
8.267215775e-08
8.286721338e-08
8.06814769e-08
8.123132846e-08
8.1409948e-08
8.129991512e-08
8.096573712e-08
8.044000811e-08
8.029108411e-08
8.03488133e-08
8.040397007e-08
8.042152427e-08
8.040817237e-08
8.039036165e-08
8.040780348e-08
8.047660408e-08
8.062688024e-08
8.082446109e-08
8.103358068e-08
8.134096231e-08
8.18220494e-08
8.23655541e-08
8.275747827e-08
8.291800844e-08
8.197137407e-08
8.287828252e-08
8.298680071e-08
8.2780408e-08
8.237105976e-08
8.145103553e-08
8.056342211e-08
8.025201083e-08
8.031627856e-08
8.040539673e-08
8.044700972e-08
8.044996291e-08
8.046875215e-08
8.054222139e-08
8.068991887e-08
8.085475728e-08
8.106100139e-08
8.142441201e-08
8.198468628e-08
8.254396959e-08
8.287608704e-08
8.29801991e-08
8.372794733e-08
8.41711033e-08
8.417618175e-08
8.395318269e-08
8.34981337e-08
8.256191536e-08
8.136277249e-08
8.041589436e-08
8.020117855e-08
8.031896272e-08
8.043062615e-08
8.048220633e-08
8.052262617e-08
8.059567043e-08
8.071196212e-08
8.086885451e-08
8.111319103e-08
8.158322813e-08
8.223475628e-08
8.277430603e-08
8.300612854e-08
8.304139562e-08
8.476891049e-08
8.497721865e-08
8.496372672e-08
8.481198323e-08
8.435071054e-08
8.348204574e-08
8.195631638e-08
8.066012514e-08
8.012053713e-08
8.016070688e-08
8.036287768e-08
8.047183126e-08
8.054253622e-08
8.059945627e-08
8.071238355e-08
8.090311248e-08
8.1241424e-08
8.185562039e-08
8.256122688e-08
8.299903925e-08
8.310483606e-08
8.30849489e-08
8.528261055e-08
8.532604749e-08
8.529765659e-08
8.520025263e-08
8.485388854e-08
8.371185534e-08
8.15104451e-08
8.037457676e-08
7.989423153e-08
7.991368836e-08
8.018484733e-08
8.041502426e-08
8.051928937e-08
8.056744297e-08
8.073987796e-08
8.101325357e-08
8.149098316e-08
8.219110885e-08
8.279443532e-08
8.30986516e-08
8.313785472e-08
8.309936054e-08
8.541857773e-08
8.542378151e-08
8.54207858e-08
8.536746526e-08
8.515627526e-08
8.407387523e-08
8.051691542e-08
7.961948216e-08
7.942475712e-08
7.951576273e-08
7.986346224e-08
8.027116773e-08
8.040311894e-08
8.054447273e-08
8.089129557e-08
8.120435564e-08
8.175428059e-08
8.235627254e-08
8.284005232e-08
8.305831971e-08
8.309174399e-08
8.307270395e-08
8.542066464e-08
8.542517008e-08
8.543855032e-08
8.542778998e-08
8.535604505e-08
8.455111592e-08
7.77007888e-08
7.916565433e-08
7.910048333e-08
7.919350278e-08
7.950190485e-08
7.998801258e-08
8.015448904e-08
8.063584803e-08
8.100035046e-08
8.123367175e-08
8.19047841e-08
8.246204834e-08
8.274086789e-08
8.278041434e-08
8.284904964e-08
8.291294158e-08
8.532631998e-08
8.534630791e-08
8.538700047e-08
8.54083052e-08
8.537518679e-08
8.460641778e-08
7.870239385e-08
7.894638879e-08
7.893382984e-08
7.907294363e-08
7.938015067e-08
7.978566629e-08
8.013139765e-08
8.098035422e-08
8.105806234e-08
7.955019877e-08
8.026668836e-08
8.081280737e-08
8.108605053e-08
8.112480605e-08
8.119206865e-08
8.125468274e-08
8.520881619e-08
8.524736899e-08
8.529273284e-08
8.532164391e-08
8.522977304e-08
8.230257016e-08
7.923851553e-08
7.745482067e-08
7.908126773e-08
7.919007878e-08
7.948133939e-08
7.984878703e-08
8.06508646e-08
8.134182883e-08
8.129310133e-08
7.966570176e-08
7.758003962e-08
7.60269943e-08
7.837633899e-08
7.919254683e-08
7.747901926e-08
8.362426724e-12
8.509401498e-08
8.512682938e-08
8.516893953e-08
8.519065195e-08
8.506935909e-08
8.248739518e-08
7.979170521e-08
7.603318899e-08
7.779184726e-08
7.970479859e-08
8.000186605e-08
8.039244427e-08
8.129691857e-08
8.150310644e-08
7.987288125e-08
7.697063405e-08
7.500922487e-08
7.338933906e-08
7.619959623e-10
1.620186807e-11
8.57066128e-13
9.102099809e-16
8.499532057e-08
8.50280129e-08
8.505848644e-08
8.505968414e-08
8.457120172e-08
8.207024447e-08
7.951516895e-08
7.611390301e-08
7.701457792e-08
7.87665936e-08
8.076635849e-08
8.130951587e-08
8.171244428e-08
8.167796909e-08
8.004403535e-08
7.719054251e-08
7.535123742e-08
7.363098044e-08
6.279060813e-10
4.272448076e-14
3.84749321e-17
1.023656166e-19
8.49333995e-08
8.494040551e-08
8.495211727e-08
8.491711398e-08
8.265902466e-08
8.042650391e-08
7.805321603e-08
7.496747539e-08
7.492487163e-08
7.64419907e-08
7.943323613e-08
8.129065112e-08
8.166080576e-08
8.163077538e-08
7.96297084e-08
7.75511528e-08
7.579877521e-08
7.166454538e-08
1.783878986e-10
1.111991139e-14
8.162778184e-19
1.056928542e-22
8.489560804e-08
8.487029157e-08
8.486128596e-08
8.47793907e-08
8.281570059e-08
8.070388471e-08
7.837621739e-08
7.605934603e-08
7.343023603e-08
7.491673892e-08
7.772686434e-08
7.962365427e-08
8.001465967e-08
7.998873052e-08
7.798241983e-08
7.568194791e-08
7.388734241e-08
4.647590952e-08
2.277698097e-11
1.399788969e-15
1.060449224e-19
1.244650547e-23
8.489004388e-08
8.481889109e-08
8.477541396e-08
8.300411747e-08
8.123527819e-08
7.923375074e-08
7.694686173e-08
7.439876776e-08
7.170596175e-08
7.340889943e-08
7.610237223e-08
7.803091758e-08
7.841019537e-08
7.833413918e-08
7.641259674e-08
7.410731013e-08
4.80170658e-08
4.884234937e-10
3.667170458e-14
2.406404607e-18
1.859293223e-22
1.610952576e-26
8.493333307e-08
8.479477809e-08
8.475006395e-08
8.294875074e-08
8.126810119e-08
7.807293344e-08
7.510797787e-08
6.384425778e-08
5.853543009e-08
6.652588373e-08
6.943371586e-08
7.020498418e-08
7.61809922e-08
7.501330501e-08
4.69105775e-08
1.04551796e-08
4.530994464e-10
1.269851287e-13
1.99815552e-17
1.573031633e-21
1.303995368e-25
9.468156275e-30
8.501502727e-08
8.478100185e-08
8.473028169e-08
8.301384691e-08
8.135310897e-08
7.954442429e-08
2.788298095e-10
1.799750248e-09
3.5334338e-08
5.918571142e-08
6.494158581e-08
6.203905899e-08
4.996334149e-08
7.502706842e-09
5.647087807e-10
1.251217493e-11
2.953360021e-14
3.328269551e-17
5.701667654e-21
5.948851521e-25
5.728451537e-29
3.106029496e-33
8.51593241e-08
8.475887952e-08
8.47062262e-08
8.300765129e-08
8.134725033e-08
7.794334451e-08
9.784237481e-11
1.051013604e-11
2.284398373e-09
1.88950505e-08
3.068423914e-08
3.050480929e-08
1.334123729e-09
6.308939954e-11
3.386343301e-12
2.976606996e-14
2.481008251e-17
9.501689197e-21
1.564485453e-24
2.013720966e-28
2.151200409e-32
9.106097098e-37
8.536354861e-08
8.475101019e-08
8.468328086e-08
8.298899075e-08
8.132887962e-08
5.875917382e-09
4.315481104e-12
0
0
1.605026384e-10
1.058504397e-09
2.072454777e-10
2.911234199e-11
1.319155339e-12
2.350248903e-14
9.744398654e-17
6.402929988e-20
1.239924357e-23
1.422951493e-27
1.581353481e-31
1.359814466e-35
4.264757429e-40
8.563033634e-08
8.468569551e-08
8.459346519e-08
8.290157976e-08
8.020904961e-08
3.752798289e-09
0
5.340946658e-17
0
1.490513851e-12
1.750357373e-11
1.332351445e-12
3.303559202e-13
1.684223831e-14
1.514664289e-16
3.167159952e-19
1.667125354e-22
3.122701465e-26
3.366163381e-30
3.224103099e-34
1.842761552e-38
2.667867247e-43
8.592520672e-08
8.440958274e-08
8.430244561e-08
8.261639663e-08
7.923380428e-08
1.049134392e-09
7.373236656e-14
0
1.44054921e-16
1.285724698e-14
1.765027478e-13
1.235484071e-14
3.319583357e-15
1.372408217e-16
7.03658232e-19
9.133561918e-22
4.089798317e-25
6.882818962e-29
7.346298798e-33
5.942878653e-37
2.55441673e-41
2.957812634e-46
8.61188469e-08
8.392835727e-08
8.372458597e-08
8.205009424e-08
7.192860908e-08
4.925835559e-10
9.517929363e-14
0
1.048404157e-18
1.21867618e-16
1.608695242e-15
1.178396096e-16
3.012847829e-17
8.545525872e-19
2.67197436e-21
2.483869316e-24
9.493763373e-28
1.347618704e-31
1.315904233e-35
7.629922017e-40
1.293139802e-44
2.331048058e-50
8.603246525e-08
8.325537335e-08
8.280066387e-08
8.114465058e-08
6.616515251e-08
8.045421616e-11
0
2.820273232e-17
0
1.200023113e-18
1.459600452e-17
1.130145898e-18
2.916842528e-19
4.895146416e-21
9.57931275e-24
6.426669262e-27
1.903492635e-30
2.210758462e-34
1.675330859e-38
6.442643158e-43
7.472880968e-48
5.595262185e-54
8.538257173e-08
8.082993347e-08
8.037741048e-08
7.876986227e-08
2.766400805e-08
1.625869627e-11
1.100309462e-15
0
2.509807582e-22
1.468295505e-20
1.431864772e-19
1.027907894e-20
9.063903463e-22
1.578824307e-23
2.297694455e-26
1.133628775e-29
2.392706022e-33
2.177684213e-37
1.035603923e-41
1.294901489e-46
8.376155637e-53
1.00170761e-58
8.386072299e-08
7.838255564e-08
7.787787269e-08
7.632031523e-08
1.714328422e-08
6.389670279e-12
0
1.447329521e-19
2.906395302e-23
6.344307122e-23
4.211073729e-22
5.139867056e-23
8.104003871e-25
3.208535003e-26
3.464680645e-29
1.221416028e-32
1.757367503e-36
1.113201081e-40
3.099765208e-45
2.525973396e-50
1.573210081e-55
1.652689615e-60
8.34812107e-08
7.582455011e-08
7.519251448e-08
7.368866419e-08
2.317062975e-09
1.407054181e-13
1.701068264e-18
3.520057115e-22
2.964174031e-25
4.345687897e-26
5.076925536e-25
1.78305694e-25
1.465235505e-27
4.095651842e-29
3.291316099e-32
8.157761579e-36
7.542505867e-40
3.051496094e-44
4.390828523e-49
2.85075073e-54
3.519680326e-59
5.708789971e-64
8.265847932e-08
7.259536237e-08
7.18121428e-08
7.037589995e-08
9.338050654e-11
3.019105234e-14
1.291829488e-17
5.531681414e-21
3.874243673e-24
2.842256351e-27
1.054752039e-27
4.293413006e-28
2.386926171e-30
3.291142743e-32
1.907276558e-35
3.165981076e-39
1.699893882e-43
2.43581129e-48
1.721621192e-53
2.279880251e-58
3.016199043e-63
4.125316788e-68
8.211067294e-08
6.906305288e-08
6.81447931e-08
6.678189724e-08
4.281105641e-11
2.653129784e-14
1.773844365e-17
1.252850537e-20
1.05849249e-23
8.880156581e-27
9.277010999e-30
6.775469646e-31
2.598902534e-33
1.588584421e-35
6.127182239e-39
5.999652603e-43
1.403869075e-47
1.118498485e-52
1.366355862e-57
1.806559224e-62
2.373530915e-67
4.069662079e-72
7.595914713e-08
6.450344019e-08
6.373465229e-08
6.245995924e-08
4.03646617e-11
3.5022908e-14
2.928880587e-17
2.418798517e-20
2.082513688e-23
1.681952993e-26
1.205041237e-29
7.578559748e-33
4.419042361e-36
4.896134121e-39
1.046977897e-42
5.936723217e-47
1.302745922e-51
2.004245443e-56
2.803517906e-61
3.412795313e-66
4.05392852e-71
7.036757397e-76
7.143113189e-08
6.077607531e-08
5.999717564e-08
5.879723212e-08
7.526842842e-11
8.273952582e-14
7.765967666e-17
6.613443854e-20
5.380466866e-23
3.849997622e-26
2.263428669e-29
9.909096346e-33
2.926291392e-36
5.352211888e-40
4.214096726e-44
4.060054961e-49
3.096791527e-54
4.679416253e-59
6.364035896e-64
7.373854952e-69
8.025750014e-74
1.309436531e-78
6.612681582e-08
5.647006074e-08
5.574051633e-08
5.462570601e-08
6.860288483e-11
8.768384137e-14
8.990250732e-17
7.740970956e-20
6.006416406e-23
3.900258835e-26
1.969449007e-29
6.96530771e-33
1.519433186e-36
1.57856313e-40
5.525268694e-45
1.100106346e-49
1.796489353e-54
2.796720891e-59
3.883598216e-64
4.485998446e-69
4.587312312e-74
7.516387115e-79
6.101107675e-08
5.257617744e-08
5.190147727e-08
5.086344772e-08
6.04694902e-11
8.273536033e-14
9.143806635e-17
7.982053214e-20
6.100848486e-23
3.810471111e-26
1.799476825e-29
5.783836348e-33
1.154990433e-36
1.277831898e-40
4.695432126e-45
3.890086518e-50
6.576026162e-55
1.059736898e-59
1.512870929e-64
1.755800459e-69
1.637852225e-74
2.562995696e-79
5.536291945e-08
4.872423587e-08
4.817032495e-08
4.720691845e-08
9.100697598e-11
1.951722015e-13
2.279806375e-16
2.119444994e-19
1.627010403e-22
1.016188533e-25
5.053720774e-29
1.677206379e-32
3.260384766e-36
4.132629789e-40
2.735846303e-44
4.850774717e-49
8.737801246e-54
1.45624019e-58
2.137281576e-63
2.526244966e-68
2.219327937e-73
3.237164554e-78
4.954819722e-08
4.529195926e-08
4.499205416e-08
4.409221308e-08
6.698741514e-11
1.191293485e-13
1.441203923e-16
1.32735845e-19
1.032561026e-22
6.550600243e-26
3.222451608e-29
1.045159638e-32
1.894704953e-36
1.271044362e-40
1.681479486e-45
3.09390841e-50
5.588808679e-55
9.820412975e-60
1.480020411e-64
1.764216634e-69
1.638482886e-74
2.342540706e-79
4.597033452e-08
4.363300519e-08
4.315988898e-08
4.22966912e-08
5.522116691e-11
8.521706946e-14
1.047661608e-16
9.356378883e-20
7.365883299e-23
4.749074161e-26
2.25655242e-29
7.076203253e-33
1.642085812e-36
1.980773375e-40
2.822965146e-45
5.342374698e-50
9.933650586e-55
1.767425073e-59
2.727509917e-64
3.280542502e-69
2.994903221e-74
3.995105538e-79
4.333244838e-08
3.897776826e-08
3.860294881e-08
3.783088984e-08
3.3326341e-11
4.452984524e-14
5.439573391e-17
4.848612355e-20
3.847604802e-23
2.516020375e-26
1.211378193e-29
4.003959828e-33
9.835446658e-37
1.540465799e-40
8.649070155e-45
1.678022864e-49
3.200329183e-54
5.864833812e-59
9.26865361e-64
1.125984717e-68
1.010561654e-73
1.249597281e-78
3.721538781e-08
3.516572009e-08
3.49477374e-08
3.424878265e-08
3.435843541e-11
4.137086374e-14
4.949099517e-17
4.369393571e-20
3.477509807e-23
2.301068681e-26
1.127480409e-29
4.085971241e-33
9.949733299e-37
9.456768535e-41
2.416180782e-45
4.782281702e-50
9.293603984e-55
1.746702144e-59
2.834209631e-64
3.495692923e-69
3.090660974e-74
3.461107208e-79
3.542750669e-08
3.287366622e-08
3.250700908e-08
3.18568689e-08
2.370770591e-11
2.879596449e-14
3.397455943e-17
3.076424319e-20
4.257440861e-23
5.381468523e-26
3.021683014e-29
1.334935133e-32
4.208787245e-36
6.120290295e-40
1.290200197e-44
2.585984255e-49
5.069858859e-54
9.701824166e-59
1.618965629e-63
2.039579721e-68
1.784484259e-73
1.702603973e-78
3.225318675e-08
2.973757696e-08
2.936605447e-08
2.877873338e-08
5.458927851e-11
1.421120747e-13
1.651957251e-16
1.520113297e-19
2.171218335e-22
2.856383872e-25
1.936546507e-28
1.062211552e-31
3.19091605e-35
4.032576526e-39
5.082704688e-44
1.022478149e-48
2.001607769e-53
3.867204902e-58
6.622230957e-63
8.543234982e-68
7.438419094e-73
5.857195679e-78
3.178742258e-08
2.799453317e-08
2.745247769e-08
2.690342813e-08
2.56344182e-11
2.999734111e-14
3.530345671e-17
3.385579812e-20
4.549106427e-23
5.414727578e-26
4.122745966e-29
2.493609111e-32
5.842900268e-36
4.882711225e-40
1.358278464e-44
2.712170771e-49
5.258087474e-54
1.017376605e-58
1.774439462e-63
2.336656459e-68
2.036222356e-73
1.772997626e-78
2.974742678e-08
2.502349145e-08
2.453456796e-08
2.40438766e-08
2.579413795e-11
3.611205028e-14
4.772528357e-17
6.388179925e-20
1.02591977e-22
1.09747274e-25
8.419752001e-29
6.526423778e-32
2.706880486e-35
2.475128188e-39
5.857753037e-44
1.149659447e-48
2.201980051e-53
4.246623059e-58
7.465527813e-63
9.958991335e-68
8.684094098e-73
6.711788582e-78
2.622258439e-08
2.296614297e-08
2.255455985e-08
2.210346865e-08
2.862616942e-11
5.476843742e-14
8.2773743e-17
1.347667386e-19
2.473805644e-22
2.632169066e-25
2.002110002e-28
1.336406729e-31
4.788375566e-35
5.672082053e-39
1.424495753e-43
2.736057133e-48
5.214964968e-53
1.004640385e-57
1.762370881e-62
2.357210823e-67
2.061089031e-72
1.310591438e-77
2.379565222e-08
2.097004078e-08
2.054965881e-08
2.013866564e-08
2.29981897e-11