/*--------------------------------*- C++ -*----------------------------------*\
  =========                 |
  \\      /  F ield         | OpenFOAM: The Open Source CFD Toolbox
   \\    /   O peration     | Website:  https://openfoam.org
    \\  /    A nd           | Version:  9
     \\/     M anipulation  |
\*---------------------------------------------------------------------------*/
FoamFile
{
    format      ascii;
    class       volScalarField;
    location    "10";
    object      F3Li3.gas;
}
// * * * * * * * * * * * * * * * * * * * * * * * * * * * * * * * * * * * * * //

dimensions      [0 0 0 0 0 0 0];

internalField   nonuniform List<scalar> 
2215
(
4.127460891e-11
4.108226366e-11
4.059781476e-11
3.970032435e-11
3.830042153e-11
3.635296357e-11
3.385704068e-11
3.083287823e-11
2.728295346e-11
2.314731695e-11
1.825783471e-11
1.227854088e-11
4.448101978e-12
1.756250699e-12
7.307694933e-13
3.191282512e-13
1.501395297e-13
8.034210734e-14
5.292312133e-14
4.573502559e-14
5.00418538e-14
5.954475721e-14
4.139881914e-11
4.123022936e-11
4.076047091e-11
3.984922774e-11
3.840618429e-11
3.639783386e-11
3.384504059e-11
3.079614229e-11
2.728546171e-11
2.329986366e-11
1.87529811e-11
1.361053528e-11
8.177832365e-12
4.511037992e-12
2.371872514e-12
1.22537673e-12
6.459656504e-13
3.665805187e-13
2.408870869e-13
1.953958086e-13
1.931514398e-13
2.085966448e-13
4.158322706e-11
4.142486306e-11
4.094885259e-11
4.000378182e-11
3.850303813e-11
3.642257069e-11
3.380025127e-11
3.07117276e-11
2.722737294e-11
2.337414123e-11
1.917403527e-11
1.464459549e-11
1.011638922e-11
6.41098463e-12
3.810368003e-12
2.18327859e-12
1.250183437e-12
7.516968018e-13
5.065843362e-13
4.055048307e-13
3.84680733e-13
3.98791309e-13
4.179515876e-11
4.163807332e-11
4.114692632e-11
4.016209184e-11
3.859835266e-11
3.64387446e-11
3.373587134e-11
3.059078023e-11
2.71087498e-11
2.336085675e-11
1.93896134e-11
1.527708204e-11
1.123445995e-11
7.695794125e-12
4.961172979e-12
3.072212387e-12
1.885278313e-12
1.198182975e-12
8.353401924e-13
6.722881874e-13
6.262936646e-13
6.350728214e-13
4.202091714e-11
4.186154596e-11
4.135200862e-11
4.03247272e-11
3.869485618e-11
3.645151881e-11
3.36602101e-11
3.044513476e-11
2.694093252e-11
2.325198201e-11
1.944677956e-11
1.561379125e-11
1.189743672e-11
8.562058265e-12
5.846252297e-12
3.845070494e-12
2.501090083e-12
1.672867371e-12
1.209743685e-12
9.8850762e-13
9.164471197e-13
9.185408059e-13
4.225558527e-11
4.209297269e-11
4.156400697e-11
4.049308838e-11
3.879592144e-11
3.646708802e-11
3.358360419e-11
3.029117841e-11
2.674788403e-11
2.308577343e-11
1.939601153e-11
1.575720174e-11
1.228424809e-11
9.145183393e-12
6.516482552e-12
4.496461799e-12
3.073169281e-12
2.15305764e-12
1.614988457e-12
1.346552313e-12
1.252239503e-12
1.24854015e-12
4.249783004e-11
4.233196095e-11
4.178324785e-11
4.066856221e-11
3.890525776e-11
3.649344894e-11
3.35191129e-11
3.014695984e-11
2.655436298e-11
2.289599042e-11
1.928077983e-11
1.578723943e-11
1.250250165e-11
9.540369848e-12
7.025924567e-12
5.04195469e-12
3.596042745e-12
2.627389207e-12
2.04174259e-12
1.740955527e-12
1.631491603e-12
1.624666098e-12
4.274743e-11
4.257831911e-11
4.200953654e-11
4.085178319e-11
3.90257014e-11
3.653789309e-11
3.348793816e-11
3.003263807e-11
2.638572283e-11
2.271671523e-11
1.914854094e-11
1.576265506e-11
1.262656981e-11
9.819000425e-12
7.425214748e-12
5.507167496e-12
4.077221688e-12
3.094806711e-12
2.487087803e-12
2.170142012e-12
2.054577965e-12
2.04859481e-12
4.300409179e-11
4.283132676e-11
4.224190645e-11
4.104284375e-11
3.915955914e-11
3.66039873e-11
3.348342634e-11
2.997753579e-11
2.628023401e-11
2.259016334e-11
1.904727295e-11
1.573651798e-11
1.271603417e-11
1.00396971e-11
7.761648187e-12
5.92304409e-12
4.533311227e-12
3.563063384e-12
2.95507072e-12
2.637736367e-12
2.525970706e-12
2.525687906e-12
4.326690228e-11
4.308949337e-11
4.247877744e-11
4.12417896e-11
3.931051697e-11
3.670191424e-11
3.352704422e-11
2.997112218e-11
2.624566171e-11
2.254259751e-11
1.901311705e-11
1.575508162e-11
1.282406603e-11
1.025574779e-11
8.081666693e-12
6.324843993e-12
4.988367411e-12
4.048018979e-12
3.457106949e-12
3.153647543e-12
3.055524346e-12
3.066356949e-12
4.353413614e-11
4.335058592e-11
4.271814715e-11
4.144888564e-11
3.948310183e-11
3.684306759e-11
3.364116147e-11
3.005974485e-11
2.63128239e-11
2.260281339e-11
1.908795234e-11
1.587052408e-11
1.300583034e-11
1.052172235e-11
8.434721113e-12
6.753551816e-12
5.4741858e-12
4.573891351e-12
4.012694606e-12
3.734963764e-12
3.659679275e-12
3.687187147e-12
4.380334632e-11
4.361197032e-11
4.295825188e-11
4.166552079e-11
3.968310079e-11
3.70391947e-11
3.384463303e-11
3.027431907e-11
2.653676515e-11
2.283545688e-11
1.933492778e-11
1.614485695e-11
1.332457583e-11
1.089960422e-11
8.878097656e-12
7.25901601e-12
6.032206111e-12
5.174541174e-12
4.650538017e-12
4.406944518e-12
4.362241227e-12
4.411667968e-12
4.407163313e-11
4.387110738e-11
4.319863516e-11
4.189488242e-11
3.991915531e-11
3.730564603e-11
3.416049407e-11
3.064611898e-11
2.695830121e-11
2.329392275e-11
1.98192358e-11
1.665114793e-11
1.385659485e-11
1.146480363e-11
9.482502428e-12
7.904377537e-12
6.71675494e-12
5.895988144e-12
5.409564985e-12
5.203722714e-12
5.194808647e-12
5.270436644e-12
4.433597947e-11
4.412594519e-11
4.344048046e-11
4.214279956e-11
4.020336004e-11
3.766204544e-11
3.461739649e-11
3.121446788e-11
2.762912341e-11
2.404362349e-11
2.061953798e-11
1.747835064e-11
1.469639581e-11
1.231207076e-11
1.033794e-11
8.771115935e-12
7.598812849e-12
6.798655127e-12
6.34073082e-12
6.168671226e-12
6.19666661e-12
6.300863857e-12
4.459363623e-11
4.437519599e-11
4.368687719e-11
4.241777237e-11
4.055110005e-11
3.813197212e-11
3.524872122e-11
3.202447004e-11
2.860844359e-11
2.515991132e-11
2.18277162e-11
1.87325985e-11
1.595940008e-11
1.355949227e-11
1.155833982e-11
9.963408598e-12
8.769386284e-12
7.959352552e-12
7.507271314e-12
7.355000614e-12
7.413818376e-12
7.545760467e-12
4.484252774e-11
4.461842587e-11
4.394323238e-11
4.27303077e-11
4.097983074e-11
3.874097665e-11
3.608932741e-11
3.312234982e-11
2.995697603e-11
2.672131639e-11
2.354218907e-11
2.05314584e-11
1.77779081e-11
1.534657588e-11
1.328146706e-11
1.160903948e-11
1.034049353e-11
9.471739198e-12
8.984693401e-12
8.823779522e-12
8.896991719e-12
9.051047136e-12
4.508143434e-11
4.485775062e-11
4.421424261e-11
4.309078573e-11
4.150595958e-11
3.951142282e-11
3.716784472e-11
3.454479986e-11
3.172312143e-11
2.879279603e-11
2.5849076e-11
2.298455111e-11
2.028309313e-11
1.781928738e-11
1.565776916e-11
1.385178472e-11
1.244008609e-11
1.144266049e-11
1.08578277e-11
1.064068769e-11
1.069833039e-11
1.086225095e-11
4.531024479e-11
4.509509242e-11
4.450458615e-11
4.350721435e-11
4.21395318e-11
4.045338747e-11
3.849300873e-11
3.629975253e-11
3.391742321e-11
3.139380782e-11
2.878465793e-11
2.615246748e-11
2.356370031e-11
2.109229042e-11
1.881906804e-11
1.682771542e-11
1.519540037e-11
1.398086584e-11
1.321307964e-11
1.287044091e-11
1.286652278e-11
1.301989041e-11
4.552902377e-11
4.533172274e-11
4.481677737e-11
4.398127822e-11
4.287680723e-11
4.155231195e-11
4.003497345e-11
3.833972676e-11
3.647645594e-11
3.445202056e-11
3.22789522e-11
2.998194082e-11
2.75969417e-11
2.518156035e-11
2.281905417e-11
2.061773737e-11
1.86985947e-11
1.717397761e-11
1.612365362e-11
1.556759341e-11
1.543995037e-11
1.5553609e-11
4.573749474e-11
4.556749788e-11
4.514875247e-11
4.45036264e-11
4.369232683e-11
4.275692105e-11
4.170801652e-11
4.053793336e-11
3.923036905e-11
3.776016412e-11
3.610023059e-11
3.423725941e-11
3.216860588e-11
2.991877393e-11
2.75506915e-11
2.517660709e-11
2.295254149e-11
2.105151466e-11
1.962597676e-11
1.876245826e-11
1.843766371e-11
1.847418921e-11
4.593493791e-11
4.580027852e-11
4.549234486e-11
4.505115671e-11
4.453581402e-11
4.397619353e-11
4.336823205e-11
4.26886588e-11
4.190492084e-11
4.097572092e-11
3.984934162e-11
3.848300984e-11
3.683796257e-11
3.489640253e-11
3.267702074e-11
3.026079567e-11
2.780788214e-11
2.553840535e-11
2.368859199e-11
2.244098822e-11
2.184708118e-11
2.176402552e-11
4.612003428e-11
4.602568026e-11
4.583331909e-11
4.558906201e-11
4.533921216e-11
4.509608309e-11
4.48432589e-11
4.45513193e-11
4.418627169e-11
4.370708106e-11
4.305815722e-11
4.218385473e-11
4.102314382e-11
3.95221744e-11
3.764583676e-11
3.540767774e-11
3.292275502e-11
3.041236247e-11
2.817973175e-11
2.652324294e-11
2.560978804e-11
2.536650318e-11
4.629105833e-11
4.623774323e-11
4.615382362e-11
4.60783009e-11
4.603445354e-11
4.601380048e-11
4.599268874e-11
4.594423756e-11
4.584715392e-11
4.56730303e-11
4.537929999e-11
4.491704123e-11
4.422111273e-11
4.322069816e-11
4.184457134e-11
4.002570688e-11
3.779279654e-11
3.529633672e-11
3.284676537e-11
3.084449706e-11
2.96075939e-11
2.917591609e-11
4.64462722e-11
4.643093816e-11
4.643817789e-11
4.649005113e-11
4.657991639e-11
4.668285189e-11
4.677415631e-11
4.682743554e-11
4.684569453e-11
4.682239806e-11
4.672724618e-11
4.653954291e-11
4.621754296e-11
4.569031628e-11
4.485186958e-11
4.360010638e-11
4.188233778e-11
3.971636525e-11
3.732919559e-11
3.515156971e-11
3.365339997e-11
3.303273119e-11
4.658601965e-11
4.660018475e-11
4.667674857e-11
4.681232184e-11
4.697239372e-11
4.712157083e-11
4.724084874e-11
4.73257486e-11
4.737184312e-11
4.73882962e-11
4.737638473e-11
4.731645772e-11
4.719071487e-11
4.696373069e-11
4.6573394e-11
4.591532409e-11
4.482529754e-11
4.323518868e-11
4.122181183e-11
3.912667315e-11
3.750178459e-11
3.673189639e-11
4.670937729e-11
4.674511311e-11
4.686827913e-11
4.70517939e-11
4.723964728e-11
4.73940458e-11
4.750657384e-11
4.758439513e-11
4.763648065e-11
4.766504272e-11
4.767560791e-11
4.766816674e-11
4.762970736e-11
4.754408314e-11
4.738089473e-11
4.70829155e-11
4.654872302e-11
4.562273988e-11
4.419357968e-11
4.244935147e-11
4.088801675e-11
4.004984048e-11
4.681759848e-11
4.686656454e-11
4.70169456e-11
4.722346731e-11
4.74163185e-11
4.75602478e-11
4.765747991e-11
4.772319188e-11
4.776932152e-11
4.780216228e-11
4.782245915e-11
4.783079051e-11
4.782953697e-11
4.780415709e-11
4.774268133e-11
4.761677941e-11
4.737505793e-11
4.692512888e-11
4.612333507e-11
4.489681859e-11
4.359125284e-11
4.279089916e-11
4.691236971e-11
4.696696741e-11
4.712932559e-11
4.734320974e-11
4.753169156e-11
4.766339445e-11
4.774838777e-11
4.780608597e-11
4.784849555e-11
4.788060957e-11
4.790433821e-11
4.792026333e-11
4.792753253e-11
4.792835303e-11
4.791156031e-11
4.786248437e-11
4.775236293e-11
4.753808591e-11
4.713693932e-11
4.643886317e-11
4.550532614e-11
4.484015421e-11
4.699567149e-11
4.704952505e-11
4.72125097e-11
4.742452843e-11
4.76066131e-11
4.773009178e-11
4.780900788e-11
4.786419811e-11
4.79066892e-11
4.793992945e-11
4.796499413e-11
4.79833041e-11
4.799632825e-11
4.800261536e-11
4.800282281e-11
4.798477916e-11
4.793320351e-11
4.782457928e-11
4.761508165e-11
4.724294657e-11
4.668126213e-11
4.620152817e-11
4.706958778e-11
4.711764382e-11
4.727275378e-11
4.747737748e-11
4.765393666e-11
4.777421977e-11
4.785236359e-11
4.790878762e-11
4.795347398e-11
4.798865856e-11
4.801467383e-11
4.803325819e-11
4.8047704e-11
4.806124003e-11
4.806970516e-11
4.806978146e-11
4.804322712e-11
4.797414262e-11
4.784496229e-11
4.762838336e-11
4.730050742e-11
4.699448095e-11
4.713637528e-11
4.717451479e-11
4.731583016e-11
4.750909711e-11
4.768127991e-11
4.780199538e-11
4.788281152e-11
4.794244909e-11
4.799010205e-11
4.802739335e-11
4.805402096e-11
4.807162519e-11
4.808460331e-11
4.809843677e-11
4.811794053e-11
4.813172143e-11
4.812862356e-11
4.808602782e-11
4.798460927e-11
4.78201604e-11
4.760268233e-11
4.740646036e-11
4.719808923e-11
4.722475854e-11
4.734539596e-11
4.75244702e-11
4.769008041e-11
4.781441345e-11
4.790103203e-11
4.796479464e-11
4.801561262e-11
4.805521316e-11
4.808301318e-11
4.809983077e-11
4.811025402e-11
4.812093048e-11
4.814032505e-11
4.81712545e-11
4.818799238e-11
4.817488958e-11
4.809975024e-11
4.795151698e-11
4.776174401e-11
4.761405103e-11
4.725650454e-11
4.727102365e-11
4.736549818e-11
4.752443373e-11
4.768527656e-11
4.781111024e-11
4.790261818e-11
4.79728297e-11
4.802799462e-11
4.807028937e-11
4.80994985e-11
4.811599074e-11
4.812418527e-11
4.813125087e-11
4.814865358e-11
4.818605133e-11
4.822879838e-11
4.82391399e-11
4.819546683e-11
4.806566134e-11
4.787784229e-11
4.773749242e-11
4.731355749e-11
4.731608931e-11
4.738176296e-11
4.751982517e-11
4.767134858e-11
4.77984332e-11
4.789462918e-11
4.796789878e-11
4.802566044e-11
4.807115359e-11
4.810349568e-11
4.812109065e-11
4.8128706e-11
4.813402978e-11
4.814967714e-11
4.818800031e-11
4.824822189e-11
4.828391862e-11
4.82705135e-11
4.816521612e-11
4.798280345e-11
4.783648045e-11
4.737160732e-11
4.736212777e-11
4.740152224e-11
4.750864069e-11
4.764523055e-11
4.777141865e-11
4.787360104e-11
4.795218552e-11
4.801376888e-11
4.806179859e-11
4.809626567e-11
4.811735282e-11
4.812694432e-11
4.813194854e-11
4.814566744e-11
4.818421701e-11
4.825232115e-11
4.831492201e-11
4.832585231e-11
4.824813825e-11
4.807836025e-11
4.792834016e-11
4.743544043e-11
4.741302219e-11
4.742885061e-11
4.749860712e-11
4.761353274e-11
4.773198045e-11
4.783559749e-11
4.792002336e-11
4.798739803e-11
4.80397084e-11
4.807802277e-11
4.810285822e-11
4.811597068e-11
4.812283279e-11
4.813611485e-11
4.81740665e-11
4.824644232e-11
4.8329105e-11
4.836466257e-11
4.831430908e-11
4.816142349e-11
4.801215381e-11
4.751619683e-11
4.747852808e-11
4.746933183e-11
4.750367729e-11
4.758316882e-11
4.768587494e-11
4.778576268e-11
4.787312211e-11
4.794558595e-11
4.800338704e-11
4.804720179e-11
4.807751641e-11
4.809567923e-11
4.810636706e-11
4.812158395e-11
4.816029598e-11
4.823557982e-11
4.8331789e-11
4.839144226e-11
4.836508562e-11
4.823100154e-11
4.80839218e-11
4.763279646e-11
4.757819995e-11
4.753219499e-11
4.75326419e-11
4.75722196e-11
4.76443123e-11
4.77303739e-11
4.78153987e-11
4.789150175e-11
4.795524636e-11
4.80055955e-11
4.804258486e-11
4.806726396e-11
4.808366401e-11
4.81031239e-11
4.814452573e-11
4.822282752e-11
4.832615157e-11
4.840523834e-11
4.840155796e-11
4.828759327e-11
4.814179032e-11
4.779981717e-11
4.773431403e-11
4.76533827e-11
4.760334524e-11
4.760278207e-11
4.763378937e-11
4.768939252e-11
4.775844589e-11
4.783135165e-11
4.789885723e-11
4.79558182e-11
4.800040577e-11
4.803288654e-11
4.805664613e-11
4.808221948e-11
4.812835496e-11
4.820872003e-11
4.831518489e-11
4.841013104e-11
4.842550593e-11
4.833192196e-11
4.818623262e-11
4.79947087e-11
4.793473106e-11
4.784367553e-11
4.775634386e-11
4.769465419e-11
4.767642972e-11
4.769396899e-11
4.773326497e-11
4.778577522e-11
4.784681131e-11
4.790567554e-11
4.795630058e-11
4.799655203e-11
4.802858553e-11
4.806192336e-11
4.811378188e-11
4.819526822e-11
4.830355641e-11
4.841023982e-11
4.843906691e-11
4.836508975e-11
4.821877893e-11
4.813710715e-11
4.810442126e-11
4.804211744e-11
4.796131363e-11
4.788036918e-11
4.780099651e-11
4.775042644e-11
4.775300413e-11
4.777519074e-11
4.781641361e-11
4.786736863e-11
4.791866225e-11
4.796427787e-11
4.800409356e-11
4.804598741e-11
4.810386638e-11
4.818366972e-11
4.829192389e-11
4.840847668e-11
4.844661654e-11
4.838214697e-11
4.823503538e-11
4.820316252e-11
4.82117385e-11
4.820239923e-11
4.814901357e-11
4.805612899e-11
4.795723997e-11
4.787494389e-11
4.781946346e-11
4.780133585e-11
4.781764946e-11
4.785269417e-11
4.789674527e-11
4.794298585e-11
4.798851839e-11
4.803853493e-11
4.809902954e-11
4.817426827e-11
4.828494793e-11
4.840817253e-11
4.845044627e-11
4.838849427e-11
4.823993349e-11
4.834527028e-11
4.850293821e-11
4.860137497e-11
4.856059837e-11
4.836609377e-11
4.814358971e-11
4.798546408e-11
4.789718036e-11
4.785508102e-11
4.784166022e-11
4.785754003e-11
4.789366561e-11
4.793789746e-11
4.798619889e-11
4.803933956e-11
4.809714742e-11
4.81667027e-11
4.828283217e-11
4.841297844e-11
4.845167324e-11
4.838794993e-11
4.823351132e-11
4.899383877e-11
4.965684701e-11
4.992723746e-11
4.984641953e-11
4.948993615e-11
4.880921337e-11
4.826184752e-11
4.800695772e-11
4.790853647e-11
4.787799919e-11
4.787826517e-11
4.789965564e-11
4.794248677e-11
4.799233167e-11
4.804426388e-11
4.809333054e-11
4.816294015e-11
4.829158524e-11
4.842517257e-11
4.845066469e-11
4.836801067e-11
4.820266866e-11
5.053697417e-11
5.141873659e-11
5.150685945e-11
5.131502552e-11
5.09220379e-11
5.011822001e-11
4.909011154e-11
4.829148599e-11
4.80023742e-11
4.791535815e-11
4.790252722e-11
4.791504927e-11
4.795265742e-11
4.800024503e-11
4.804158534e-11
4.808406813e-11
4.816458242e-11
4.831655166e-11
4.844393787e-11
4.844282665e-11
4.831825486e-11
4.814551316e-11
5.220064945e-11
5.263318435e-11
5.261305233e-11
5.238115523e-11
5.189845356e-11
5.103834236e-11
5.007553233e-11
4.897849891e-11
4.823362264e-11
4.797796621e-11
4.792507331e-11
4.792908527e-11
4.795904589e-11
4.79977554e-11
4.802779981e-11
4.807940356e-11
4.818534707e-11
4.836280061e-11
4.846310512e-11
4.841543787e-11
4.822619193e-11
4.806057637e-11
5.332014054e-11
5.359400286e-11
5.352792924e-11
5.334407453e-11
5.279207466e-11
5.185415708e-11
5.058170183e-11
4.944935682e-11
4.856509518e-11
4.809957873e-11
4.795929336e-11
4.794196847e-11
4.795889706e-11
4.798087929e-11
4.802082757e-11
4.80937292e-11
4.82402913e-11
4.843000127e-11
4.847377316e-11
4.834061275e-11
4.811084606e-11
4.796426575e-11
5.413124897e-11
5.419871635e-11
5.419788091e-11
5.395237642e-11
5.350741955e-11
5.215187434e-11
5.02327931e-11
4.926015825e-11
4.8539946e-11
4.811260778e-11
4.79649788e-11
4.794167113e-11
4.79536209e-11
4.797479426e-11
4.803719173e-11
4.814765076e-11
4.833405092e-11
4.848815132e-11
4.846907235e-11
4.825295634e-11
4.801661724e-11
4.788430526e-11
5.442801283e-11
5.443561779e-11
5.440474381e-11
5.430411312e-11
5.394049892e-11
5.263395947e-11
4.939803422e-11
4.864214254e-11
4.830764294e-11
4.805339416e-11
4.794024156e-11
4.792664516e-11
4.793442539e-11
4.798060988e-11
4.81063411e-11
4.82175512e-11
4.840270077e-11
4.850669496e-11
4.845877604e-11
4.822434323e-11
4.796281039e-11
4.783031916e-11
5.447949113e-11
5.448934818e-11
5.44748139e-11
5.444580105e-11
5.433917535e-11
5.346656831e-11
4.72780493e-11
4.811827979e-11
4.794390792e-11
4.787480904e-11
4.785087223e-11
4.786798375e-11
4.788795398e-11
4.802929021e-11
4.815839575e-11
4.820994663e-11
4.837077553e-11
4.839231066e-11
4.832802026e-11
4.812431448e-11
4.782345121e-11
4.771794657e-11
5.440431792e-11
5.443316208e-11
5.447527749e-11
5.447896001e-11
5.443231096e-11
5.37843443e-11
4.853206361e-11
4.775384933e-11
4.768806577e-11
4.770239241e-11
4.773453372e-11
4.77837532e-11
4.787540329e-11
4.816547594e-11
4.817733123e-11
4.723482687e-11
4.740335999e-11
4.742446444e-11
4.736145986e-11
4.716182819e-11
4.686698219e-11
4.676358764e-11
5.423279828e-11
5.429528445e-11
5.436159397e-11
5.440218709e-11
5.435419609e-11
5.246519151e-11
5.031723467e-11
4.672206483e-11
4.765628169e-11
4.765101677e-11
4.77128166e-11
4.779792753e-11
4.804651586e-11
4.830542695e-11
4.828322831e-11
4.731661611e-11
4.607198531e-11
4.513907892e-11
4.577908514e-11
4.603851333e-11
4.472367734e-11
4.819456717e-15
5.402661973e-11
5.410679308e-11
5.419049617e-11
5.423910772e-11
5.418941671e-11
5.257219583e-11
5.083652488e-11
4.597440342e-11
4.672997171e-11
4.776680851e-11
4.783791881e-11
4.797165985e-11
4.830274954e-11
4.836062079e-11
4.739334396e-11
4.563968456e-11
4.446577963e-11
4.350549509e-11
4.50056591e-13
9.419384319e-15
4.947346118e-16
5.246059203e-19
5.38057794e-11
5.3905352e-11
5.398385239e-11
5.402557598e-11
5.374460192e-11
5.219758467e-11
5.058184941e-11
4.647276614e-11
4.595276397e-11
4.699396297e-11
4.811566457e-11
4.831677453e-11
4.845188322e-11
4.843115307e-11
4.746230149e-11
4.574559248e-11
4.464904228e-11
4.36296885e-11
3.720625547e-13
2.528818181e-17
2.225536206e-20
5.900557218e-23
5.357838911e-11
5.368283355e-11
5.374683876e-11
5.37614549e-11
5.239425784e-11
5.102309356e-11
4.954410177e-11
4.604583087e-11
4.412146935e-11
4.499924485e-11
4.724253613e-11
4.830503412e-11
4.842494641e-11
4.840336297e-11
4.721212588e-11
4.597328534e-11
4.493183784e-11
4.248101962e-11
1.057439205e-13
6.591593532e-18
4.838246384e-22
6.240246454e-26
5.335863387e-11
5.346419313e-11
5.351048487e-11
5.348088769e-11
5.227549653e-11
5.100121474e-11
4.960580399e-11
4.79522005e-11
4.324866278e-11
4.410347386e-11
4.622208145e-11
4.731449113e-11
4.744934147e-11
4.742972683e-11
4.623509924e-11
4.486283147e-11
4.379627245e-11
2.754791354e-11
1.350068538e-14
8.296998182e-19
6.285598449e-23
7.37732747e-27
5.314331021e-11
5.324209406e-11
5.32485865e-11
5.21483092e-11
5.107029313e-11
4.994354413e-11
4.864778878e-11
4.693560218e-11
4.227592899e-11
4.321890797e-11
4.52557535e-11
4.63680422e-11
4.649792513e-11
4.644850161e-11
4.530428902e-11
4.392920688e-11
2.845631343e-11
2.894574619e-13
2.173312272e-17
1.426140346e-21
1.101905491e-25
9.547365433e-30
5.293846548e-11
5.30069321e-11
5.301638242e-11
5.189098972e-11
5.084277829e-11
4.913109946e-11
4.748512529e-11
4.000845801e-11
3.454109419e-11
3.922028393e-11
4.117237932e-11
4.16014846e-11
4.517040959e-11
4.447661326e-11
2.781105121e-11
6.197564489e-12
2.685202322e-13
7.52552412e-17
1.184168202e-20
9.322275334e-25
7.727894872e-29
5.611149699e-33
5.274385052e-11
5.276079347e-11
5.276818039e-11
5.170211668e-11
5.066786154e-11
4.954149097e-11
1.702720501e-13
9.956019218e-13
2.079004304e-11
3.488131627e-11
3.848406993e-11
3.675632256e-11
2.960597076e-11
4.446787691e-12
3.347778903e-13
7.416742865e-15
1.750333277e-17
1.972433716e-20
3.378974165e-24
3.525457264e-28
3.394839154e-32
1.840720389e-36
5.255685822e-11
5.248635587e-11
5.248098963e-11
5.142935635e-11
5.04006611e-11
4.829180067e-11
6.063468138e-14
6.152981971e-15
1.344031547e-12
1.113638695e-11
1.818258558e-11
1.807288881e-11
7.900505658e-13
3.735210533e-14
2.007336827e-15
1.764366445e-17
1.470555967e-20
5.631294183e-24
9.271891386e-28
1.193412824e-31
1.274879948e-35
5.396601826e-40
5.237762793e-11
5.216273285e-11
5.214886479e-11
5.110562333e-11
5.008333509e-11
3.618090689e-12
2.65678443e-15
0
0
9.462863981e-14
6.272155078e-13
1.227827599e-13
1.72394831e-14
7.808531246e-16
1.392704934e-17
5.775132385e-20
3.794787687e-23
7.348561226e-27
8.433241065e-31
9.371959032e-35
8.058957214e-39
2.527512915e-43
5.220851125e-11
5.178355919e-11
5.175851427e-11
5.072333742e-11
4.908448498e-11
2.297207345e-12
0
3.09019447e-20
0
8.791417703e-16
1.037151213e-14
7.893171526e-16
1.95618492e-16
9.968743645e-18
8.972719946e-20
1.876546654e-22
9.878039392e-26
1.850278888e-29
1.994552455e-33
1.910391772e-37
1.091905743e-41
1.580813126e-46
5.209087138e-11
5.113341859e-11
5.112121926e-11
5.009879485e-11
4.805227359e-11
6.364825214e-13
4.474748083e-17
0
8.485959324e-20
7.586833808e-18
1.045823577e-16
7.318885825e-18
1.965561958e-18
8.122774916e-20
4.167123556e-22
5.409872439e-25
2.422518312e-28
4.076983398e-32
4.351580972e-36
3.520304557e-40
1.513133641e-44
1.752089506e-49
5.178854425e-11
5.042387624e-11
5.032418143e-11
4.931769779e-11
4.324556773e-11
2.962636324e-13
5.724529396e-17
0
6.208269814e-22
7.19392054e-20
9.531715594e-19
6.980229876e-20
1.78381783e-20
5.057628864e-22
1.581889513e-24
1.470724877e-27
5.621564949e-31
7.979857042e-35
7.792190855e-39
4.518150975e-43
7.657543512e-48
1.380378989e-53
5.118872213e-11
4.950527342e-11
4.921506799e-11
4.823076662e-11
3.9329639e-11
4.782904231e-14
0
1.677465224e-20
0
7.085896808e-22
8.64810114e-21
6.693874502e-22
1.726741646e-22
2.897194227e-24
5.670100216e-27
3.804322709e-30
1.126817108e-33
1.308734787e-37
9.917846869e-42
3.814036335e-46
4.423936264e-51
3.312397307e-57
5.040862082e-11
4.723052662e-11
4.696402101e-11
4.602474059e-11
1.616600559e-11
9.503210686e-15
6.434971848e-19
0
1.463002589e-25
8.672148155e-24
8.483437803e-23
6.088087907e-24
5.365752286e-25
9.344041887e-27
1.359910875e-29
6.709750527e-33
1.416222601e-36
1.288969592e-40
6.129791166e-45
7.664655337e-50
4.957980308e-56
5.929320646e-62
4.898394714e-11
4.52511227e-11
4.494037548e-11
4.404156797e-11
9.893314811e-12
3.687454203e-15
0
8.354479931e-23
1.678200323e-26
3.747130525e-26
2.494947971e-25
3.044120459e-26
4.797539034e-28
1.898897712e-29
2.050522758e-32
7.228909254e-36
1.04010175e-39
6.58855726e-44
1.834626547e-48
1.495022627e-53
9.311202167e-59
9.78160836e-64
4.803854962e-11
4.331774532e-11
4.295261869e-11
4.209356632e-11
1.323608018e-12
8.036113439e-17
9.829297811e-22
2.02450784e-25
1.705327576e-28
2.566534329e-29
3.00791644e-28
1.055996383e-28
8.674355628e-31
2.423906267e-32
1.947888066e-35
4.828011896e-39
4.463907132e-43
1.805985136e-47
2.598656142e-52
1.687183796e-57
2.083085452e-62
3.378690443e-67
4.669014956e-11
4.13348933e-11
4.09322358e-11
4.011359108e-11
5.322699091e-14
1.720903259e-17
7.36354487e-21
3.153183226e-24
2.208479472e-27
1.621968676e-30
6.248557212e-31
2.542675641e-31
1.413135967e-33
1.947789931e-35
1.128774363e-38
1.873709524e-42
1.006042889e-46
1.441582039e-51
1.018906439e-56
1.34930314e-61
1.785082412e-66
2.441499859e-71
4.452936542e-11
3.976677103e-11
3.937467114e-11
3.858717772e-11
2.473615312e-14
1.532950986e-17
1.024901252e-20
7.238789417e-24
6.115852425e-27
5.130908055e-30
5.389886754e-33
4.011775175e-34
1.538642634e-36
9.401836544e-39
3.626248656e-42
3.550764177e-46
8.308489904e-51
6.619586237e-56
8.08647713e-61
1.069172842e-65
1.404723637e-70
2.408544544e-75
4.551096371e-11
3.851974287e-11
3.801355352e-11
3.725328245e-11
2.407132902e-14
2.088261652e-17
1.746100153e-20
1.441773181e-23
1.241141646e-26
1.002289837e-29
7.180225022e-33
4.512998232e-36
2.62652086e-39
2.900175237e-42
6.198762296e-46
3.514494152e-50
7.711910307e-55
1.186441655e-59
1.65955989e-64
2.020201182e-69
2.399686708e-74
4.165260151e-79
4.250431497e-11
3.59085147e-11
3.543232058e-11
3.472367417e-11
4.445036299e-14
4.886176056e-17
4.586122978e-20
3.905457032e-23
3.177306737e-26
2.273504555e-29
1.336594495e-32
5.851477845e-36
1.728019155e-39
3.160567155e-43
2.488497506e-47
2.397543405e-52
1.82874548e-57
2.763370492e-62
3.758248103e-67
4.354639121e-72
4.739677418e-77
7.733182854e-82
3.931480813e-11
3.3570986e-11
3.311822988e-11
3.245586528e-11
4.075598471e-14
5.208692152e-17
5.340095881e-20
4.597725127e-23
3.567287637e-26
2.316309902e-29
1.16959114e-32
4.136382205e-36
9.023120529e-40
9.374220033e-44
3.281146277e-48
6.532905226e-53
1.066831573e-57
1.660809834e-62
2.306241111e-67
2.663969463e-72
2.724131925e-77
4.463528532e-82
3.690538154e-11
3.156529028e-11
3.111376641e-11
3.049149108e-11
3.624146187e-14
4.957512674e-17
5.478106126e-20
4.781418094e-23
3.654118944e-26
2.282094154e-29
1.077644997e-32
3.463617604e-36
6.916449731e-40
7.651999216e-44
2.811751624e-48
2.329487789e-53
3.937899357e-58
6.345985855e-63
9.059472549e-68
1.051419875e-72
9.807890972e-78
1.534788129e-82
3.393359304e-11
2.961951652e-11
2.921627865e-11
2.863195308e-11
5.516059377e-14
1.182584674e-16
1.381079138e-19
1.283696144e-22
9.852874136e-26
6.15310389e-29
3.059811171e-32
1.01542278e-35
1.973855916e-39
2.501855965e-43
1.656249397e-47
2.936590681e-52
5.289721312e-57
8.815807685e-62
1.293866782e-66
1.52933393e-71
1.343530836e-76
1.959696783e-81
3.153351477e-11
2.824460288e-11
2.791080355e-11
2.735258748e-11
4.153075294e-14
7.382556735e-17
8.928811321e-20
8.221292106e-23
6.393992676e-26
4.055693021e-29
1.994901588e-32
6.469756428e-36
1.172821613e-39
7.86771209e-44
1.040817723e-48
1.915076638e-53
3.459343337e-58
6.078555666e-63
9.16083998e-68
1.091986399e-72
1.014157658e-77
1.449927025e-82
3.025201925e-11
2.77288298e-11
2.73166864e-11
2.677035267e-11
3.492630471e-14
5.386246744e-17
6.619199136e-20
5.909193809e-23
4.650609579e-26
2.997722692e-29
1.424163284e-32
4.465529386e-36
1.036170153e-39
1.249882838e-43
1.781304705e-48
3.371051438e-53
6.268135175e-58
1.115242015e-62
1.721049523e-67
2.070007365e-72
1.889767329e-77
2.520879096e-82
3.143303947e-11
2.64383638e-11
2.589806507e-11
2.538010377e-11
2.233183375e-14
2.979649179e-17
3.636640759e-20
3.239250941e-23
2.568972184e-26
1.679139445e-29
8.082061567e-33
2.670815976e-36
6.559599166e-40
1.027324977e-43
5.767922507e-48
1.119031525e-52
2.134192385e-57
3.911015909e-62
6.180825812e-67
7.508608038e-72
6.738877394e-77
8.332780485e-82
2.890575578e-11
2.429592048e-11
2.381305977e-11
2.333679857e-11
2.340452227e-14
2.816918835e-17
3.368899097e-20
2.973525613e-23
2.365902804e-26
1.565178895e-29
7.667779842e-33
2.778377434e-36
6.764971563e-40
6.429669341e-44
1.642742454e-48
3.251393856e-53
6.318483231e-58
1.187523384e-62
1.926863549e-67
2.37656233e-72
2.101189116e-77
2.353016446e-82
2.483080104e-11
2.118915549e-11
2.081408948e-11
2.039780769e-11
1.517860734e-14
1.843580411e-17
2.175087422e-20
1.969477834e-23
2.724679921e-26
3.443654182e-29
1.933366418e-32
8.540573393e-36
2.69235393e-39
3.91513109e-43
8.253354583e-48
1.654239647e-52
3.243153754e-57
6.206178098e-62
1.035637527e-66
1.304699107e-71
1.141516212e-76
1.089137207e-81
2.255154945e-11
1.886449292e-11
1.84766259e-11
1.810709338e-11
3.437242094e-14
8.951406366e-17
1.040780331e-19
9.579323952e-23
1.368872616e-25
1.801100974e-28
1.221297788e-31
6.69944607e-35
2.012777791e-38
2.543688804e-42
3.206126217e-47
6.449763891e-52
1.262620659e-56
2.4394673e-61
4.177392886e-66
5.38921469e-71
4.692294114e-76
3.694843882e-81
1.866250715e-11
1.6024595e-11
1.577399174e-11
1.54585119e-11
1.474056557e-14
1.728341621e-17
2.036613559e-20
1.955421548e-23
2.633043065e-26
3.136388306e-29
2.390047474e-32
1.446032267e-35
3.388793641e-39
2.831978786e-43
7.878150952e-48
1.573107545e-52
3.049827034e-57
5.901125981e-62
1.029245657e-66
1.355363646e-71
1.181104392e-76
1.028428992e-81
1.566613891e-11
1.40365576e-11
1.386156171e-11
1.358433048e-11
1.457982146e-14
2.042375342e-17
2.700114856e-20
3.616385952e-23
5.810525589e-26
6.217073544e-29
4.770976071e-32
3.698026877e-35
1.533807564e-38
1.402481881e-42
3.319180333e-47
6.514321643e-52
1.247709709e-56
2.406268398e-61
4.230201203e-66
5.64307682e-71
4.92068089e-76
3.803112124e-81
1.3122644e-11
1.251556862e-11
1.240649956e-11
1.215836957e-11
1.575488407e-14
3.015724192e-17
4.559101875e-20
7.42691465e-23
1.363758768e-25
1.451313825e-28
1.104133819e-31
7.371713222e-35
2.641532685e-38
3.129079812e-42
7.858492059e-47
1.509408899e-51
2.876981062e-56
5.542427228e-61
9.722766368e-66
1.300448241e-70
1.137084498e-75
7.23043605e-81
1.257107125e-11
1.177033848e-11
1.161158899e-11
1.137935721e-11
1.299810694e-14
2.168809112e-17