/*--------------------------------*- C++ -*----------------------------------*\
  =========                 |
  \\      /  F ield         | OpenFOAM: The Open Source CFD Toolbox
   \\    /   O peration     | Website:  https://openfoam.org
    \\  /    A nd           | Version:  9
     \\/     M anipulation  |
\*---------------------------------------------------------------------------*/
FoamFile
{
    format      ascii;
    class       volScalarField;
    location    "10";
    object      F4Be2.gas;
}
// * * * * * * * * * * * * * * * * * * * * * * * * * * * * * * * * * * * * * //

dimensions      [0 0 0 0 0 0 0];

internalField   nonuniform List<scalar> 
2215
(
2.728446955e-12
2.715398175e-12
2.682892244e-12
2.623153902e-12
2.53039871e-12
2.401682738e-12
2.236909626e-12
2.037346905e-12
1.803048981e-12
1.529999191e-12
1.206984164e-12
8.11792192e-13
2.941043907e-13
1.161295036e-13
4.832378299e-14
2.110388673e-14
9.928833272e-15
5.312953224e-15
3.499489228e-15
3.023827627e-15
3.308236657e-15
3.936262183e-15
2.736370394e-12
2.724833872e-12
2.693257117e-12
2.632612487e-12
2.537039168e-12
2.4043373e-12
2.235867576e-12
2.034731206e-12
1.803105293e-12
1.539978938e-12
1.239666836e-12
8.998402268e-13
5.407141351e-13
2.982887658e-13
1.568464693e-13
8.103404791e-14
4.27180318e-14
2.424150781e-14
1.592835738e-14
1.291883732e-14
1.276913105e-14
1.378944973e-14
2.748143999e-12
2.737268037e-12
2.705300175e-12
2.642477941e-12
2.543160248e-12
2.405747391e-12
2.232710813e-12
2.028975498e-12
1.799107298e-12
1.544803287e-12
1.267439266e-12
9.681742437e-13
6.688804529e-13
4.23918077e-13
2.519693948e-13
1.443789077e-13
8.267434674e-14
4.970806481e-14
3.349680324e-14
2.681020539e-14
2.543084218e-14
2.636221248e-14
2.76169569e-12
2.750926209e-12
2.71802298e-12
2.652650137e-12
2.549244604e-12
2.40664971e-12
2.228305979e-12
2.020840687e-12
1.791136682e-12
1.543810862e-12
1.281607004e-12
1.009945219e-12
7.427844937e-13
5.088645382e-13
3.280638358e-13
2.031602984e-13
1.246706866e-13
7.923150559e-14
5.523387659e-14
4.444795425e-14
4.140301609e-14
4.198107428e-14
2.776169422e-12
2.765299385e-12
2.731277044e-12
2.663189334e-12
2.555487909e-12
2.407394488e-12
2.223206027e-12
2.011112832e-12
1.779943697e-12
1.536524233e-12
1.285323936e-12
1.032156726e-12
7.865899541e-13
5.661280886e-13
3.865814743e-13
2.542620638e-13
1.65389112e-13
1.106174875e-13
7.998763739e-14
6.535295524e-14
6.058317618e-14
6.071832544e-14
2.791273752e-12
2.780262619e-12
2.745071782e-12
2.674210758e-12
2.562126409e-12
2.408401124e-12
2.218095037e-12
2.000878174e-12
1.767111849e-12
1.525462484e-12
1.281898923e-12
1.041585952e-12
8.121305442e-13
6.046637943e-13
4.308868512e-13
2.97327347e-13
2.032122488e-13
1.423648132e-13
1.067784405e-13
8.902145403e-14
8.277899843e-14
8.253022098e-14
2.806947701e-12
2.795813611e-12
2.759449076e-12
2.685811906e-12
2.569409395e-12
2.41020633e-12
2.213901054e-12
1.991334019e-12
1.754279461e-12
1.512860444e-12
1.274223451e-12
1.043525149e-12
8.265243994e-13
6.307681996e-13
4.645554051e-13
3.33385666e-13
2.377778659e-13
1.737215036e-13
1.34988757e-13
1.150914938e-13
1.078459641e-13
1.073895893e-13
2.823199481e-12
2.811958892e-12
2.774409767e-12
2.698040462e-12
2.577527867e-12
2.413286052e-12
2.211950459e-12
1.983840803e-12
1.743125764e-12
1.500970976e-12
1.265431874e-12
1.0418515e-12
8.346882991e-13
6.491617788e-13
4.909358336e-13
3.641311304e-13
2.695824744e-13
2.046174739e-13
1.644251462e-13
1.434584734e-13
1.358084211e-13
1.354068691e-13
2.840027724e-12
2.828664221e-12
2.78989667e-12
2.710902522e-12
2.586631964e-12
2.417868642e-12
2.211755116e-12
1.980285143e-12
1.736181972e-12
1.492585878e-12
1.258693841e-12
1.040078572e-12
8.405625203e-13
6.637209016e-13
5.131554964e-13
3.916097887e-13
2.997238385e-13
2.355650351e-13
1.953547759e-13
1.743616307e-13
1.669616689e-13
1.669361897e-13
2.857384137e-12
2.84583785e-12
2.80580582e-12
2.724396342e-12
2.596963897e-12
2.424646719e-12
2.214868305e-12
1.979951728e-12
1.733931067e-12
1.489437557e-12
1.256406313e-12
1.041262002e-12
8.476616832e-13
6.779683212e-13
5.342846823e-13
4.181526186e-13
3.297921419e-13
2.676123917e-13
2.285319544e-13
2.08455647e-13
2.019568639e-13
2.0266553e-13
2.875159682e-12
2.863331721e-12
2.821999516e-12
2.738529091e-12
2.608813628e-12
2.434357072e-12
2.222696755e-12
1.985998756e-12
1.738458534e-12
1.49343353e-12
1.261327375e-12
1.048850308e-12
8.596318505e-13
6.955108757e-13
5.575919378e-13
4.464685515e-13
3.618888778e-13
3.023601602e-13
2.652451263e-13
2.468697927e-13
2.418803684e-13
2.436908733e-13
2.893189802e-12
2.880963616e-12
2.838351399e-12
2.753377743e-12
2.622555418e-12
2.447773988e-12
2.236495009e-12
2.000416154e-12
1.753388512e-12
1.508855281e-12
1.277642252e-12
1.066945987e-12
8.80654854e-13
7.204456348e-13
5.868633955e-13
4.798519453e-13
3.987525453e-13
3.42045756e-13
3.073912962e-13
2.912732482e-13
2.883052713e-13
2.915643647e-13
2.911272091e-12
2.89854914e-12
2.854802396e-12
2.7691498e-12
2.638752462e-12
2.465908702e-12
2.257790281e-12
2.025289395e-12
1.781433412e-12
1.53924406e-12
1.309669679e-12
1.100385537e-12
9.15777188e-13
7.577584601e-13
6.26772614e-13
5.224756573e-13
4.43973152e-13
3.897101264e-13
3.575425826e-13
3.439212957e-13
3.433193101e-13
3.483101587e-13
2.929190009e-12
2.915934109e-12
2.871417452e-12
2.78620941e-12
2.658193637e-12
2.490056031e-12
2.288482507e-12
2.063231641e-12
1.826028417e-12
1.588943125e-12
1.362626826e-12
1.155062548e-12
9.71254953e-13
8.137173029e-13
6.832708773e-13
5.79725647e-13
5.02241732e-13
4.493460259e-13
4.190656921e-13
4.076795294e-13
4.095177065e-13
4.163968608e-13
2.946739123e-12
2.933010249e-12
2.88838204e-12
2.80510603e-12
2.681890938e-12
2.521778795e-12
2.330792498e-12
2.1172479e-12
1.891117746e-12
1.662966422e-12
1.442618922e-12
1.238019516e-12
1.054737925e-12
8.961413041e-13
7.638968081e-13
6.584917951e-13
5.795749453e-13
5.260302839e-13
4.961394592e-13
4.860632464e-13
4.899393257e-13
4.986521636e-13
2.963757012e-12
2.949723509e-12
2.906039624e-12
2.826528102e-12
2.711003489e-12
2.562784806e-12
2.387057198e-12
2.190438498e-12
1.980768459e-12
1.766563104e-12
1.556208945e-12
1.35707936e-12
1.175013589e-12
1.014283575e-12
8.777781011e-13
7.67233672e-13
6.833842001e-13
6.259567674e-13
5.93755413e-13
5.83108375e-13
5.879357025e-13
5.981095318e-13
2.980140291e-12
2.966194193e-12
2.924691072e-12
2.851167357e-12
2.746640819e-12
2.614599644e-12
2.459238066e-12
2.285316091e-12
2.098280337e-12
1.904134217e-12
1.709196219e-12
1.519587013e-12
1.340837686e-12
1.177860246e-12
1.034909045e-12
9.154884695e-13
8.221480126e-13
7.561998939e-13
7.175269214e-13
7.031589733e-13
7.069542997e-13
7.177783443e-13
2.995859593e-12
2.982536836e-12
2.94464654e-12
2.879577297e-12
2.7895232e-12
2.677983387e-12
2.548043715e-12
2.402568266e-12
2.244537838e-12
2.077167507e-12
1.904181897e-12
1.72973932e-12
1.558246017e-12
1.394590687e-12
1.2441102e-12
1.11232649e-12
1.004327058e-12
9.239793291e-13
8.731839126e-13
8.505034448e-13
8.502199938e-13
8.60341921e-13
3.010901711e-12
2.998829407e-12
2.966085098e-12
2.911916154e-12
2.839499824e-12
2.752129893e-12
2.651719454e-12
2.539332625e-12
2.415673518e-12
2.281241822e-12
2.136912982e-12
1.984377484e-12
1.82606222e-12
1.665811657e-12
1.509151348e-12
1.363256574e-12
1.236122732e-12
1.135157331e-12
1.065608745e-12
1.028774818e-12
1.020287972e-12
1.027774535e-12
3.025237125e-12
3.01506203e-12
2.988892401e-12
2.947632437e-12
2.895019677e-12
2.83386181e-12
2.764898692e-12
2.687619605e-12
2.600937177e-12
2.503210688e-12
2.392674217e-12
2.268532466e-12
2.130709481e-12
1.980916164e-12
1.823382192e-12
1.665608328e-12
1.517949338e-12
1.391831999e-12
1.297300764e-12
1.240033933e-12
1.218456376e-12
1.220820808e-12
3.038811207e-12
3.031093299e-12
3.012548435e-12
2.985268467e-12
2.952891056e-12
2.917369516e-12
2.878358182e-12
2.834229862e-12
2.782704384e-12
2.721061691e-12
2.645822214e-12
2.554234574e-12
2.443887134e-12
2.31376909e-12
2.165236212e-12
2.003853263e-12
1.840355119e-12
1.689325741e-12
1.566360495e-12
1.48346395e-12
1.443968186e-12
1.438376754e-12
3.05153118e-12
3.046623499e-12
3.036101125e-12
3.022564901e-12
3.008665991e-12
2.995182331e-12
2.980736561e-12
2.963360385e-12
2.940371061e-12
2.909180148e-12
2.865862453e-12
2.80672078e-12
2.727894107e-12
2.626090268e-12
2.499105711e-12
2.348231079e-12
2.18141779e-12
2.013438266e-12
1.864402518e-12
1.753984486e-12
1.693095437e-12
1.676803866e-12
3.063278922e-12
3.061221818e-12
3.058251814e-12
3.056958054e-12
3.057688129e-12
3.060340899e-12
3.062132963e-12
3.062369301e-12
3.058069332e-12
3.048146084e-12
3.029197661e-12
2.99771154e-12
2.949435686e-12
2.880112807e-12
2.78510525e-12
2.660427887e-12
2.508612394e-12
2.33994728e-12
2.175240732e-12
2.041044076e-12
1.958247753e-12
1.9292831e-12
3.073966384e-12
3.074586764e-12
3.078202009e-12
3.085805743e-12
3.096516395e-12
3.108392053e-12
3.119215674e-12
3.127187119e-12
3.130770806e-12
3.131365585e-12
3.12651687e-12
3.114519552e-12
3.092295448e-12
3.054663215e-12
2.994905366e-12
2.906504986e-12
2.787022735e-12
2.638210526e-12
2.475692611e-12
2.328391393e-12
2.227391806e-12
2.185521702e-12
3.08350317e-12
3.086278842e-12
3.094831047e-12
3.108481143e-12
3.124506329e-12
3.139976822e-12
3.152897133e-12
3.162509764e-12
3.168655902e-12
3.17148603e-12
3.172064808e-12
3.169245636e-12
3.16148278e-12
3.146074916e-12
3.118403545e-12
3.070836296e-12
2.991925231e-12
2.879466505e-12
2.739488562e-12
2.595568515e-12
2.484734217e-12
2.432303412e-12
3.091886394e-12
3.096187787e-12
3.108024335e-12
3.125118069e-12
3.143198621e-12
3.15897455e-12
3.171061708e-12
3.179556392e-12
3.185191622e-12
3.188878867e-12
3.190717697e-12
3.19126906e-12
3.189873641e-12
3.185334263e-12
3.174867249e-12
3.154369291e-12
3.115715352e-12
3.047501961e-12
2.94462602e-12
2.821752145e-12
2.713194017e-12
2.655226239e-12
3.099175842e-12
3.104364811e-12
3.11802585e-12
3.136631785e-12
3.154878162e-12
3.169531869e-12
3.179930515e-12
3.186854961e-12
3.191407593e-12
3.19457697e-12
3.196908302e-12
3.198658456e-12
3.199482279e-12
3.199556193e-12
3.196997105e-12
3.190091242e-12
3.174328962e-12
3.141920291e-12
3.081859884e-12
2.991950779e-12
2.898379485e-12
2.841653904e-12
3.105476714e-12
3.110972395e-12
3.125279033e-12
3.144107692e-12
3.161609679e-12
3.174786055e-12
3.183576295e-12
3.189204772e-12
3.192955796e-12
3.195695251e-12
3.19797598e-12
3.199994389e-12
3.20180895e-12
3.203429449e-12
3.204198691e-12
3.203194331e-12
3.198365835e-12
3.185287006e-12
3.156475448e-12
3.102973108e-12
3.032952935e-12
2.984004267e-12
3.110923367e-12
3.116241395e-12
3.130304912e-12
3.148554844e-12
3.164990921e-12
3.176810462e-12
3.184297494e-12
3.189053359e-12
3.192294041e-12
3.194688611e-12
3.196801915e-12
3.198928068e-12
3.201227705e-12
3.203642533e-12
3.205896073e-12
3.207122764e-12
3.207014854e-12
3.203024699e-12
3.190832062e-12
3.163852291e-12
3.119256917e-12
3.082072011e-12
3.115664071e-12
3.120428322e-12
3.133597795e-12
3.150789774e-12
3.166028168e-12
3.176786181e-12
3.183751424e-12
3.187979536e-12
3.190608062e-12
3.192559781e-12
3.194293758e-12
3.196134824e-12
3.198399046e-12
3.201284773e-12
3.204686209e-12
3.207970452e-12
3.20962146e-12
3.209715883e-12
3.20541926e-12
3.192829619e-12
3.167993668e-12
3.142759923e-12
3.119869642e-12
3.123775623e-12
3.135606671e-12
3.151332227e-12
3.165653247e-12
3.176009065e-12
3.182395001e-12
3.186195134e-12
3.188597401e-12
3.190294968e-12
3.191706312e-12
3.193178359e-12
3.195096572e-12
3.197840217e-12
3.201614965e-12
3.206169829e-12
3.210236622e-12
3.212042337e-12
3.211517898e-12
3.206051467e-12
3.192635007e-12
3.176856884e-12
3.123672652e-12
3.126611122e-12
3.136673668e-12
3.150953406e-12
3.164483191e-12
3.174300509e-12
3.180496477e-12
3.184269433e-12
3.186650219e-12
3.188268564e-12
3.189497576e-12
3.19065801e-12
3.192154336e-12
3.194491771e-12
3.198130657e-12
3.203156646e-12
3.208890718e-12
3.212804414e-12
3.21417132e-12
3.21227772e-12
3.204759513e-12
3.194992296e-12
3.127187446e-12
3.129152619e-12
3.13719248e-12
3.149922119e-12
3.162377512e-12
3.171944648e-12
3.178267804e-12
3.182240399e-12
3.184785999e-12
3.186490353e-12
3.187686461e-12
3.188648539e-12
3.189761019e-12
3.191603341e-12
3.194857886e-12
3.199949004e-12
3.206532459e-12
3.212801216e-12
3.215492526e-12
3.215564502e-12
3.211172016e-12
3.204817212e-12
3.130550197e-12
3.131574442e-12
3.137437169e-12
3.14829408e-12
3.159714403e-12
3.169076012e-12
3.175662467e-12
3.180003644e-12
3.182867669e-12
3.184796683e-12
3.186096073e-12
3.186993888e-12
3.187830651e-12
3.18921014e-12
3.191984011e-12
3.196887445e-12
3.203873079e-12
3.211644838e-12
3.216460729e-12
3.217629146e-12
3.215101833e-12
3.210614871e-12
3.134026696e-12
3.134115091e-12
3.137868549e-12
3.146471466e-12
3.156667764e-12
3.165718545e-12
3.172581238e-12
3.177391737e-12
3.180695681e-12
3.182966908e-12
3.18449019e-12
3.185459013e-12
3.186163327e-12
3.187195107e-12
3.189525306e-12
3.194185457e-12
3.201474318e-12
3.210173437e-12
3.216946394e-12
3.219246718e-12
3.217864723e-12
3.214396978e-12
3.138264106e-12
3.137083626e-12
3.138893566e-12
3.144690491e-12
3.153386107e-12
3.16190002e-12
3.168932078e-12
3.174230261e-12
3.178061301e-12
3.180780562e-12
3.182640489e-12
3.18381132e-12
3.184539448e-12
3.185386625e-12
3.187394623e-12
3.191839824e-12
3.199356549e-12
3.208856815e-12
3.217259292e-12
3.220714076e-12
3.220063099e-12
3.217097603e-12
3.144861331e-12
3.141744591e-12
3.141283916e-12
3.144325543e-12
3.150467623e-12
3.15786117e-12
3.164754758e-12
3.170427464e-12
3.174804137e-12
3.17805409e-12
3.180358495e-12
3.181860632e-12
3.182772826e-12
3.18362528e-12
3.185495978e-12
3.189858731e-12
3.197664093e-12
3.208013377e-12
3.21754594e-12
3.222187603e-12
3.222011425e-12
3.21921145e-12
3.156674754e-12
3.151032984e-12
3.146588102e-12
3.146399977e-12
3.149306324e-12
3.154277698e-12
3.160207255e-12
3.165931442e-12
3.170808599e-12
3.174661148e-12
3.1775222e-12
3.179490651e-12
3.180750193e-12
3.181799063e-12
3.183777602e-12
3.188243818e-12
3.196609654e-12
3.207698685e-12
3.218011876e-12
3.223774103e-12
3.223873612e-12
3.221018562e-12
3.17691503e-12
3.168959064e-12
3.159180877e-12
3.153472513e-12
3.152450868e-12
3.1543522e-12
3.157933943e-12
3.162008558e-12
3.166560596e-12
3.170769569e-12
3.174195888e-12
3.17673484e-12
3.178490429e-12
3.179923553e-12
3.182217596e-12
3.187154502e-12
3.196198487e-12
3.207805019e-12
3.219003626e-12
3.22551582e-12
3.225720687e-12
3.222670294e-12
3.206852314e-12
3.198180787e-12
3.185544475e-12
3.172932067e-12
3.164743915e-12
3.160196074e-12
3.160215153e-12
3.161701974e-12
3.164513966e-12
3.167729639e-12
3.171102549e-12
3.174005137e-12
3.176246845e-12
3.178164267e-12
3.180969646e-12
3.186718063e-12
3.196415362e-12
3.209079159e-12
3.220834868e-12
3.227451649e-12
3.22757556e-12
3.224250904e-12
3.243791389e-12
3.236273324e-12
3.22676932e-12
3.213078287e-12
3.197453045e-12
3.18098269e-12
3.171169926e-12
3.166294666e-12
3.166105306e-12
3.167282043e-12
3.169588286e-12
3.172123136e-12
3.174525314e-12
3.176874154e-12
3.180399356e-12
3.187022933e-12
3.198039348e-12
3.211475631e-12
3.223434577e-12
3.229772484e-12
3.229480445e-12
3.225729307e-12
3.28442762e-12
3.281059301e-12
3.279463023e-12
3.269782633e-12
3.250530069e-12
3.225121649e-12
3.20004817e-12
3.181310738e-12
3.172683449e-12
3.169765398e-12
3.170211052e-12
3.171768007e-12
3.17385294e-12
3.176405601e-12
3.180640251e-12
3.188770579e-12
3.201208836e-12
3.215222245e-12
3.226982785e-12
3.232418424e-12
3.231416414e-12
3.226791252e-12
3.333290556e-12
3.349924407e-12
3.364561744e-12
3.358444281e-12
3.329603138e-12
3.289207103e-12
3.245092656e-12
3.21080167e-12
3.188234039e-12
3.176701202e-12
3.172908508e-12
3.17288658e-12
3.174170276e-12
3.176911687e-12
3.182260522e-12
3.192441499e-12
3.20617711e-12
3.220383739e-12
3.231374346e-12
3.235256181e-12
3.233093946e-12
3.227233974e-12
3.424081127e-12
3.491390926e-12
3.520575616e-12
3.515195411e-12
3.479406386e-12
3.406670965e-12
3.320155792e-12
3.254219315e-12
3.214019436e-12
3.190671739e-12
3.17910026e-12
3.175554458e-12
3.175803964e-12
3.178623653e-12
3.185674055e-12
3.198340035e-12
3.212942924e-12
3.226869279e-12
3.236274743e-12
3.238034614e-12
3.233850028e-12
3.227136152e-12
3.561198902e-12
3.607405316e-12
3.616369383e-12
3.609082746e-12
3.594540205e-12
3.541156203e-12
3.449020166e-12
3.328086558e-12
3.252659533e-12
3.211761092e-12
3.190005789e-12
3.180622479e-12
3.17898783e-12
3.182081138e-12
3.19144109e-12
3.206386479e-12
3.221400126e-12
3.234389851e-12
3.24102803e-12
3.240032517e-12
3.23354573e-12
3.226098433e-12
3.628996894e-12
3.637378013e-12
3.641430595e-12
3.641298642e-12
3.633477316e-12
3.604990927e-12
3.545108247e-12
3.43752234e-12
3.318500836e-12
3.243865333e-12
3.206824265e-12
3.189064108e-12
3.183939778e-12
3.18762631e-12
3.200275627e-12
3.216977276e-12
3.231609339e-12
3.24220694e-12
3.244851201e-12
3.24066322e-12
3.231056019e-12
3.223818453e-12
3.639190246e-12
3.638716739e-12
3.641944308e-12
3.648123459e-12
3.646681572e-12
3.631194764e-12
3.577756742e-12
3.49300004e-12
3.388082106e-12
3.288612996e-12
3.230449853e-12
3.201932736e-12
3.191927712e-12
3.197320861e-12
3.214083282e-12
3.231065788e-12
3.243244757e-12
3.248973225e-12
3.246681755e-12
3.237827694e-12
3.227426644e-12
3.220943195e-12
3.618421911e-12
3.61543291e-12
3.620374036e-12
3.635024212e-12
3.643982183e-12
3.6258705e-12
3.551483934e-12
3.48027471e-12
3.402517204e-12
3.320207847e-12
3.255796551e-12
3.218209877e-12
3.204427448e-12
3.213430783e-12
3.234970741e-12
3.247570219e-12
3.25322753e-12
3.252734067e-12
3.24612044e-12
3.234027774e-12
3.223966121e-12
3.218311895e-12
3.577670539e-12
3.578187519e-12
3.584037157e-12
3.604171675e-12
3.624094462e-12
3.619929926e-12
3.485590247e-12
3.428338367e-12
3.387891381e-12
3.330512801e-12
3.275734781e-12
3.235669506e-12
3.223084004e-12
3.23711327e-12
3.25694235e-12
3.258462047e-12
3.25770353e-12
3.253900986e-12
3.244931904e-12
3.231531559e-12
3.220912646e-12
3.215854157e-12
3.542301401e-12
3.545441472e-12
3.556157893e-12
3.569576772e-12
3.582756926e-12
3.591841522e-12
3.312314506e-12
3.372709444e-12
3.351244122e-12
3.324118765e-12
3.287771001e-12
3.250933177e-12
3.245009444e-12
3.260148924e-12
3.267554117e-12
3.260682311e-12
3.251247868e-12
3.24145842e-12
3.234629574e-12
3.222508876e-12
3.211499561e-12
3.208884695e-12
3.514530829e-12
3.520275199e-12
3.533087771e-12
3.543027315e-12
3.551523086e-12
3.53699501e-12
3.31245393e-12
3.324960661e-12
3.314954565e-12
3.306147454e-12
3.288947515e-12
3.26350309e-12
3.264043241e-12
3.275150818e-12
3.273461138e-12
3.199747371e-12
3.186222909e-12
3.176629252e-12
3.169936982e-12
3.158058698e-12
3.147269569e-12
3.144707001e-12
3.489760897e-12
3.4986708e-12
3.509257384e-12
3.518262021e-12
3.521771535e-12
3.414077718e-12
3.299651591e-12
3.237451176e-12
3.299585341e-12
3.291387426e-12
3.285453798e-12
3.274199194e-12
3.277821765e-12
3.281921197e-12
3.280393353e-12
3.214718581e-12
3.129753029e-12
3.065537362e-12
3.064049073e-12
3.082839077e-12
3.003339689e-12
3.238818546e-16
3.469538098e-12
3.477417201e-12
3.48632855e-12
3.492546185e-12
3.492968876e-12
3.392467914e-12
3.291768718e-12
3.163709133e-12
3.224003361e-12
3.286901721e-12
3.28486861e-12
3.282664158e-12
3.284648368e-12
3.2829537e-12
3.217292079e-12
3.094708834e-12
3.013869238e-12
2.948780404e-12
3.041031646e-14
6.307601264e-16
3.322289164e-17
3.525409995e-20
3.451690686e-12
3.459965719e-12
3.466706761e-12
3.470731715e-12
3.453779583e-12
3.356751797e-12
3.259594633e-12
3.113155779e-12
3.144514705e-12
3.216083772e-12
3.286206558e-12
3.287631701e-12
3.284961084e-12
3.283489471e-12
3.21780341e-12
3.098282104e-12
3.023175137e-12
2.954151985e-12
2.519220957e-14
1.711164227e-18
1.495468342e-21
3.965231104e-24
3.436163637e-12
3.443856653e-12
3.448615731e-12
3.450142086e-12
3.363951504e-12
3.277465658e-12
3.186944388e-12
3.030630407e-12
2.984787857e-12
3.04365712e-12
3.218721613e-12
3.286769656e-12
3.283556968e-12
3.281624195e-12
3.200286612e-12
3.115501281e-12
3.044594101e-12
2.878508502e-12
7.165177281e-15
4.466429563e-19
3.278263705e-23
4.223406675e-27
3.422260501e-12
3.428839761e-12
3.431777847e-12
3.429821702e-12
3.35248115e-12
3.27116173e-12
3.183404006e-12
3.089256306e-12
2.924928334e-12
2.983176372e-12
3.14881051e-12
3.219374595e-12
3.217467939e-12
3.215616901e-12
3.13401476e-12
3.039930899e-12
2.967302332e-12
1.866385157e-12
9.146736282e-16
5.621199194e-20
4.258448956e-24
4.998021342e-28
3.409622774e-12
3.415268766e-12
3.415536964e-12
3.344924888e-12
3.275697215e-12
3.203441543e-12
3.121652206e-12
3.021593684e-12
2.856734129e-12
2.923487384e-12
3.083028823e-12
3.15497618e-12
3.152958785e-12
3.149077051e-12
3.070911076e-12
2.976641119e-12
1.927264571e-12
1.960457557e-14
1.471974486e-18
9.659294127e-23
7.46333537e-27
6.466672725e-31
3.398000406e-12
3.401148976e-12
3.401495933e-12
3.329280765e-12
3.262016415e-12
3.151519441e-12
3.047046995e-12
2.587635165e-12
2.328359526e-12
2.652974789e-12
2.796113706e-12
2.819357668e-12
3.062274861e-12
3.015046472e-12
1.884927308e-12
4.199416721e-13
1.818614343e-14
5.096841551e-18
8.020070736e-22
6.313750646e-26
5.233931462e-30
3.800328999e-34
3.387015701e-12
3.386571612e-12
3.386747001e-12
3.318307556e-12
3.251927262e-12
3.179634776e-12
1.0972822e-14
6.996828849e-14
1.402853378e-12
2.358459742e-12
2.611484918e-12
2.490415365e-12
2.005196891e-12
3.01250136e-13
2.268865017e-14
5.025323784e-16
1.185563148e-18
1.335878261e-21
2.288481972e-25
2.387683894e-29
2.299216524e-33
1.246662949e-37
3.376495478e-12
3.370341694e-12
3.369785305e-12
3.302255741e-12
3.236203418e-12
3.100793803e-12
3.893205532e-15
4.164085498e-16
9.069397688e-14
7.52991249e-13
1.233773571e-12
1.224493183e-12
5.344311183e-14
2.525636337e-15
1.360179053e-16
1.195409211e-18
9.962816054e-22
3.814334399e-25
6.279978533e-29
8.082951452e-33
8.63460984e-37
3.655048766e-41
3.366095952e-12
3.35090508e-12
3.349828361e-12
3.282814258e-12
3.217146558e-12
2.32412002e-13
1.706627299e-16
0
0
6.399659122e-15
4.255769734e-14
8.318858108e-15
1.166113324e-15
5.278085758e-17
9.431565264e-19
3.911894066e-21
2.570483596e-24
4.977658479e-28
5.712293234e-32
6.348032004e-36
5.458611199e-40
1.711970744e-44
3.354863742e-12
3.327803559e-12
3.326100524e-12
3.259578078e-12
3.154226201e-12
1.476183328e-13
0
2.124926104e-21
0
5.947142586e-17
7.03709399e-16
5.347490605e-17
1.323094542e-17
6.73737326e-19
6.073090954e-21
1.270525409e-23
6.68831573e-27
1.252824321e-30
1.350529773e-34
1.293559171e-38
7.393549698e-43
1.070406855e-47
3.342258944e-12
3.288548047e-12
3.287696809e-12
3.221942871e-12
3.090307757e-12
4.093192697e-14
2.877616206e-18
0
5.732667947e-21
5.133685461e-19
7.095777456e-18
4.957943659e-19
1.329297231e-19
5.48934945e-21
2.818975805e-23
3.660713561e-26
1.639370489e-29
2.759063101e-33
2.944962493e-37
2.382436116e-41
1.024051954e-45
1.185771885e-50
3.331246463e-12
3.247410129e-12
3.240742287e-12
3.175927441e-12
2.784777447e-12
1.907665231e-14
3.686068853e-18
0
4.171141017e-23
4.868963866e-21
6.466978466e-20
4.728001014e-21
1.206232351e-21
3.417755504e-23
1.069559257e-25
9.946297436e-29
3.802025183e-32
5.397203176e-36
5.270424992e-40
3.056018526e-44
5.179531692e-49
9.336943529e-55
3.312532247e-12
3.195088403e-12
3.175865957e-12
3.112348637e-12
2.537900199e-12
3.086207838e-15
0
1.082254983e-21
0
4.796707882e-23
5.867306812e-22
4.533443739e-23
1.167344342e-23
1.957836543e-25
3.832366134e-28
2.571664395e-31
7.617441499e-35
8.84751669e-39
6.704992865e-43
2.578532216e-47
2.990864104e-52
2.239403186e-58
3.256383696e-12
3.059169225e-12
3.041712048e-12
2.980877807e-12
1.046908324e-12
6.153720758e-16
4.166328955e-20
0
9.958402482e-27
5.871262393e-25
5.755334841e-24
4.123113882e-25
3.627525021e-26
6.314142989e-28
9.190096096e-31
4.534674451e-34
9.571562505e-38
8.711715781e-42
4.142991453e-46
5.180453447e-51
3.351098279e-57
4.007689654e-63
3.180180638e-12
2.952365068e-12
2.931942988e-12
2.873304128e-12
6.454100649e-13
2.405550964e-16
0
5.449093817e-24
1.096674718e-27
2.536890296e-27
1.692616613e-26
2.061477025e-27
3.24364006e-29
1.283130608e-30
1.385623303e-33
4.88502524e-37
7.02873114e-41
4.452433532e-45
1.239819767e-49
1.010319781e-54
6.292408632e-60
6.610302309e-65
3.151432831e-12
2.853043888e-12
2.828489931e-12
2.771920133e-12
8.715894476e-14
5.292256764e-18
6.391657707e-23
1.325398539e-26
1.116101766e-29
1.73742661e-30
2.040601468e-29
7.150877634e-30
5.865654615e-32
1.637885461e-33
1.316235413e-36
3.262440991e-40
3.01642903e-44
1.220380531e-48
1.756028633e-53
1.140109455e-58
1.407642745e-63
2.283150608e-68
3.053494063e-12
2.72761531e-12
2.702245777e-12
2.648200861e-12
3.513809538e-15
1.136039499e-18
4.860871918e-22
2.081429936e-25
1.457774814e-28
1.071421581e-31
4.238823669e-32
1.721767628e-32
9.557357843e-35
1.316191947e-36
7.627427286e-40
1.266115046e-43
6.798110935e-48
9.741202464e-53
6.885078687e-58
9.117699515e-63
1.206244008e-67
1.649815212e-72
2.936982043e-12
2.634987073e-12
2.609940224e-12
2.557741419e-12
1.639639047e-15
1.016128753e-18
6.793726454e-22
4.798432658e-25
4.054127635e-28
3.40126872e-31
3.59153977e-34
2.716065077e-35
1.040761268e-37
6.353487385e-40
2.450418989e-43
2.399389629e-47
5.614352086e-52
4.473092264e-57
5.464316581e-62
7.224772316e-67
9.492204246e-72
1.627537344e-76
2.999894562e-12
2.545860084e-12
2.513533354e-12
2.463262687e-12
1.591710046e-15
1.380918253e-18
1.154706332e-21
9.534992402e-25
8.208499459e-28
6.629056971e-31
4.749102494e-34
2.991120333e-37
1.752350853e-40
1.954851066e-43
4.183954508e-47
2.372972892e-51
5.20752171e-56
8.011880972e-61
1.120721129e-65
1.364312797e-70
1.620655323e-75
2.813219221e-80
2.795015167e-12
2.368886948e-12
2.338456223e-12
2.291687098e-12
2.933695389e-15
3.224913502e-18
3.026935363e-21
2.577733351e-24
2.097167011e-27
1.500638552e-30
8.822359351e-34
3.862374394e-37
1.140621647e-40
2.086279466e-44
1.642686563e-48
1.582708631e-53
1.207401609e-58
1.824720977e-63
2.481960142e-68
2.876124179e-73
3.13082414e-78
5.109441343e-83
2.587774415e-12
2.215510766e-12
2.18660106e-12
2.142869039e-12
2.691002688e-15
3.439291796e-18
3.526172892e-21
3.036063762e-24
2.355684997e-27
1.529623252e-30
7.723746819e-34
2.731608592e-37
5.958770289e-41
6.190640021e-45
2.166837216e-49
4.314269534e-54
7.04525948e-59
1.096784337e-63
1.52302212e-68
1.759263451e-73
1.798994813e-78
2.947680435e-83
2.422566362e-12
2.074392099e-12
2.045422222e-12
2.004513778e-12
2.382656258e-15
3.259435078e-18
3.601848524e-21
3.143885177e-24
2.402730434e-27
1.500602096e-30
7.086216619e-34
2.277575926e-37
4.548085792e-41
5.031777654e-45
1.848942919e-49
1.531818426e-54
2.589475161e-59
4.172981833e-64
5.957314411e-69
6.913913734e-74
6.449462967e-79
1.009245341e-83
2.229788617e-12
1.946090454e-12
1.920081562e-12
1.881679931e-12
3.625567241e-15
7.773282678e-18
9.078365522e-21
8.438503276e-24
6.477060763e-27
4.045000306e-30
2.011524905e-33
6.675468959e-37
1.297635749e-40
1.644756678e-44
1.088843393e-48
1.930560553e-53
3.477547894e-58
5.795657659e-63
8.506098738e-68
1.005410371e-72
8.832604974e-78
1.288339836e-82
2.058100642e-12
1.842230122e-12
1.821618291e-12
1.785185925e-12
2.710881485e-15
4.819340781e-18
5.829078827e-21
5.367495858e-24
4.174690356e-27
2.64808869e-30
1.302564263e-33
4.2244657e-37
7.658062185e-41
5.137313982e-45
6.796158956e-50
1.25047824e-54
2.258836246e-59
3.969103677e-64
5.981748099e-69
7.130346444e-74
6.622154627e-79
9.467627263e-84
1.966058351e-12
1.800508641e-12
1.773625519e-12
1.738153008e-12
2.268020916e-15
3.498151687e-18
4.299254692e-21
3.8383966e-24
3.021058753e-27
1.947428273e-30
9.252166641e-34
2.901114345e-37
6.731784816e-41
8.120232661e-45
1.157277622e-49
2.190104598e-54
4.072282887e-59
7.245507114e-64
1.118132032e-68
1.344843222e-73
1.227744947e-78
1.637766643e-83
2.012039432e-12
1.684613207e-12
1.650668928e-12
1.61765555e-12
1.423738524e-15
1.900252611e-18
2.319700342e-21
2.066532843e-24
1.639123371e-27
1.071469243e-30
5.157527959e-34
1.704435802e-37
4.18627772e-41
6.556376944e-45
3.681091383e-49
7.141683009e-54
1.362049449e-58
2.496030317e-63
3.944641562e-68
4.792046606e-73
4.300803256e-78
5.318055957e-83
1.8156047e-12
1.52427293e-12
1.494739757e-12
1.464844961e-12
1.469177324e-15
1.768419477e-18
2.11505816e-21
1.866927952e-24
1.485504308e-27
9.827813974e-31
4.814755041e-34
1.744637554e-37
4.24801275e-41
4.037477007e-45
1.031554026e-49
2.04170546e-54
3.96768657e-59
7.457059599e-64
1.209977073e-68
1.492367946e-73
1.319447842e-78
1.477586205e-83
1.590951403e-12
1.341451849e-12
1.316532544e-12
1.290201893e-12
9.599956568e-16
1.165991393e-18
1.375648917e-21
1.245589546e-24
1.723169317e-27
2.177822752e-30
1.222623451e-33
5.400654128e-37
1.702150902e-40
2.475206116e-44
5.21788742e-49
1.04583167e-53
2.050359561e-58
3.923610458e-63
6.547397772e-68
8.248421238e-73
7.216759489e-78
6.885609774e-83
1.381567662e-12
1.156960031e-12
1.134409724e-12
1.111721529e-12
2.110840628e-15
5.497556609e-18
6.392327633e-21
5.88378057e-24
8.408720942e-27
1.106417805e-29
7.502727205e-33
4.115706367e-36
1.236547788e-39
1.562713187e-43
1.969685454e-48
3.962424212e-53
7.756949299e-58
1.498697292e-62
2.566403542e-67
3.310896299e-72
2.882741094e-77
2.26995326e-82
1.186741957e-12
1.002534051e-12
9.842157576e-13
9.645314425e-13
9.194372076e-16
1.077476147e-18
1.269239163e-21
1.21826646e-24
1.639597594e-27
1.952683131e-30
1.48770975e-33
9.000341606e-37
2.109172618e-40
1.762601517e-44
4.90328195e-49
9.790831099e-54
1.898169108e-58
3.672765432e-63
6.405841793e-68
8.435527527e-73
7.350962185e-78
6.40072903e-83
1.02671963e-12
8.871585595e-13
8.725340691e-13
8.550833877e-13
9.175159289e-16
1.284869107e-18
1.698339144e-21
2.27393672e-24
3.652701454e-27
3.907865568e-30
2.998498554e-33
2.324278781e-36
9.640204656e-40
8.814844149e-44
2.086163165e-48
4.094366125e-53
7.842076923e-58
1.512382623e-62
2.65875728e-67
3.546775224e-72
3.092736522e-77
2.39032417e-82
8.965108777e-13
8.094050948e-13
7.985268953e-13
7.825563574e-13
1.013668485e-15
1.93968942e-18
2.931817368e-21
4.77428926e-24
8.764811049e-27
9.32651039e-30
7.09456177e-33
4.736004427e-36
1.696975038e-39
2.010168028e-43
5.048384618e-48
9.696561889e-53
1.84818487e-57
3.560459202e-62
6.245882968e-67
8.354024099e-72
7.304567984e-77
4.644784104e-82
7.972678456e-13
7.521186158e-13
7.429924317e-13
7.28132583e-13
8.318236948e-16
1.388140248e-18