/*--------------------------------*- C++ -*----------------------------------*\
  =========                 |
  \\      /  F ield         | OpenFOAM: The Open Source CFD Toolbox
   \\    /   O peration     | Website:  https://openfoam.org
    \\  /    A nd           | Version:  9
     \\/     M anipulation  |
\*---------------------------------------------------------------------------*/
FoamFile
{
    format      ascii;
    class       volScalarField;
    location    "10";
    object      FLi.gas;
}
// * * * * * * * * * * * * * * * * * * * * * * * * * * * * * * * * * * * * * //

dimensions      [0 0 0 0 0 0 0];

internalField   nonuniform List<scalar> 
2215
(
5.024194396e-10
4.999504022e-10
4.938749601e-10
4.828076891e-10
4.657049637e-10
4.420294055e-10
4.117559612e-10
3.751019475e-10
3.320533961e-10
2.818507449e-10
2.22405416e-10
1.496171148e-10
5.421355066e-11
2.141084863e-11
8.911299329e-12
3.892522092e-12
1.831707694e-12
9.803625357e-13
6.458763551e-13
5.581893297e-13
6.107587699e-13
7.267360642e-13
5.038163516e-10
5.016169711e-10
4.957100487e-10
4.844828698e-10
4.668718479e-10
4.424710056e-10
4.115260834e-10
3.745911406e-10
3.320462789e-10
2.836760267e-10
2.28424359e-10
1.658486899e-10
9.967962092e-11
5.500007431e-11
2.892582111e-11
1.494724342e-11
7.881117886e-12
4.473239496e-12
2.939817991e-12
2.384777702e-12
2.357401662e-12
2.545888708e-12
5.058976871e-10
5.038226111e-10
4.978570497e-10
4.862487393e-10
4.679652264e-10
4.427066034e-10
4.109214602e-10
3.735078844e-10
3.312887664e-10
2.845545173e-10
2.335376323e-10
1.784457381e-10
1.233123967e-10
7.816886411e-11
4.647136134e-11
2.663315057e-11
1.525349656e-11
9.172892464e-12
6.182482612e-12
4.949126484e-12
4.6949841e-12
4.867154048e-12
5.083043395e-10
5.062614293e-10
5.001479513e-10
4.88095948e-10
4.69076955e-10
4.428694759e-10
4.101024151e-10
3.719972875e-10
3.298064805e-10
2.843593308e-10
2.361420682e-10
1.861450433e-10
1.369410002e-10
9.383695701e-11
6.050892134e-11
3.747846346e-11
2.300305348e-11
1.462163462e-11
1.019477134e-11
8.205147599e-12
7.643776295e-12
7.750832207e-12
5.108918745e-10
5.088511396e-10
5.025650077e-10
4.900437566e-10
4.702500177e-10
4.430296239e-10
4.091737046e-10
3.702064919e-10
3.277392213e-10
2.830097524e-10
2.368229639e-10
1.90238476e-10
1.450196802e-10
1.044002702e-10
7.130530739e-11
4.690791746e-11
3.051751233e-11
2.04145521e-11
1.476412244e-11
1.206443404e-11
1.118488071e-11
1.121028016e-11
5.136159377e-10
5.115775635e-10
5.051182162e-10
4.921213922e-10
4.715354037e-10
4.432724725e-10
4.082658832e-10
3.683389483e-10
3.253804022e-10
2.809697893e-10
2.361885574e-10
1.919754853e-10
1.497300813e-10
1.115095623e-10
7.948040422e-11
5.485521657e-11
3.749822471e-11
2.627453521e-11
1.970971051e-11
1.643399799e-11
1.528279186e-11
1.523741282e-11
5.164734509e-10
5.144483896e-10
5.078222877e-10
4.943544662e-10
4.729848235e-10
4.437049914e-10
4.075957573e-10
3.666211185e-10
3.230348598e-10
2.786526894e-10
2.347736256e-10
1.923323138e-10
1.523847522e-10
1.163257291e-10
8.569325682e-11
6.150989682e-11
4.387809776e-11
3.20626757e-11
2.491749216e-11
2.124698625e-11
1.991078818e-11
1.982716454e-11
5.194739508e-10
5.174729056e-10
5.106851594e-10
4.96756436e-10
4.746358917e-10
4.444049538e-10
4.07326567e-10
3.653242194e-10
3.210153023e-10
2.764747488e-10
2.331562843e-10
1.920238383e-10
1.538902668e-10
1.197191322e-10
9.056123421e-11
6.718417775e-11
4.974849301e-11
3.776586682e-11
3.035164555e-11
2.648399019e-11
2.507325827e-11
2.499980269e-11
5.226249767e-10
5.206520713e-10
5.137020914e-10
4.993320228e-10
4.765201637e-10
4.454225265e-10
4.074005502e-10
3.647542127e-10
3.197923334e-10
2.749561456e-10
2.31923259e-10
1.916983971e-10
1.549732553e-10
1.224045185e-10
9.466093171e-11
7.225523154e-11
5.531169485e-11
4.347842554e-11
3.606128414e-11
3.218897369e-11
3.08244959e-11
3.082045798e-11
5.25924446e-10
5.239744641e-10
5.168571937e-10
5.020819932e-10
4.786850865e-10
4.468982741e-10
4.0815045e-10
3.647778025e-10
3.194239347e-10
2.744002258e-10
2.315118198e-10
1.919191074e-10
1.56281796e-10
1.25031401e-10
9.855838213e-11
7.715273812e-11
6.086076074e-11
4.939344881e-11
4.218529018e-11
3.848242184e-11
3.728429819e-11
3.741569122e-11
5.293570465e-10
5.27415473e-10
5.201251139e-10
5.050050251e-10
4.811807067e-10
4.489594532e-10
4.098071081e-10
3.660502969e-10
3.203550055e-10
2.751868217e-10
2.324401585e-10
1.933242427e-10
1.584888863e-10
1.282649552e-10
1.028561488e-10
8.237597671e-11
6.678291527e-11
5.580576445e-11
4.89608884e-11
4.557215069e-11
4.465252385e-11
4.498708784e-11
5.328940676e-10
5.309404598e-10
5.23479126e-10
5.081099312e-10
4.840729109e-10
4.51748938e-10
4.126041017e-10
3.688930877e-10
3.232283832e-10
2.780993536e-10
2.35481628e-10
1.966729402e-10
1.623671746e-10
1.328612412e-10
1.082523833e-10
8.853212183e-11
7.358268689e-11
6.312741691e-11
5.673727436e-11
5.376527242e-11
5.321849035e-11
5.382005142e-11
5.364957079e-10
5.345098777e-10
5.269001635e-10
5.114271958e-10
4.874598412e-10
4.554510606e-10
4.1682703e-10
3.737056258e-10
3.285571364e-10
2.83801146e-10
2.414407917e-10
2.028629946e-10
1.688509928e-10
1.397416088e-10
1.156096015e-10
9.639060156e-11
8.19215985e-11
7.19184394e-11
6.598787263e-11
6.347666961e-11
6.336609274e-11
6.428669498e-11
5.401150652e-10
5.380852508e-10
5.303854372e-10
5.150159674e-10
4.914780406e-10
4.602989258e-10
4.228263236e-10
3.809765473e-10
3.369861404e-10
2.93106549e-10
2.512927748e-10
2.129921416e-10
1.791019871e-10
1.50066996e-10
1.260280091e-10
1.069457295e-10
9.266476742e-11
8.291455087e-11
7.733257832e-11
7.523360333e-11
7.557259702e-11
7.68408714e-11
5.43703355e-10
5.416333452e-10
5.339550501e-10
5.18962662e-10
4.962998736e-10
4.66570036e-10
4.310071724e-10
3.912635961e-10
3.492539172e-10
3.069567595e-10
2.661822722e-10
2.283770975e-10
1.945458869e-10
1.652904693e-10
1.409051639e-10
1.214723495e-10
1.069237841e-10
9.705255918e-11
9.154168886e-11
8.968350211e-11
9.039729133e-11
9.200282595e-11
5.472164308e-10
5.451269515e-10
5.376578206e-10
5.23373493e-10
5.021184313e-10
4.745609176e-10
4.417878663e-10
4.051345963e-10
3.661168105e-10
3.263356546e-10
2.873421966e-10
2.504859116e-10
2.168275672e-10
1.871390231e-10
1.619399959e-10
1.415413238e-10
1.260721782e-10
1.154784931e-10
1.095375246e-10
1.075712633e-10
1.084582489e-10
1.103317596e-10
5.506203666e-10
5.485708026e-10
5.415286245e-10
5.283513204e-10
5.091094002e-10
4.845225257e-10
4.5550232e-10
4.230321244e-10
3.881736252e-10
3.52058553e-10
3.158586917e-10
2.806994258e-10
2.47592736e-10
2.174351955e-10
1.910024132e-10
1.689325254e-10
1.516886637e-10
1.395070908e-10
1.323616556e-10
1.297019516e-10
1.303938895e-10
1.323848348e-10
5.538928498e-10
5.51968775e-10
5.456018227e-10
5.339673839e-10
5.17365572e-10
4.965472953e-10
4.722289062e-10
4.450309835e-10
4.155424125e-10
3.843685286e-10
3.521985623e-10
3.197977383e-10
2.879761654e-10
2.576336566e-10
2.297530056e-10
2.053501249e-10
1.853593673e-10
1.704891863e-10
1.610845816e-10
1.568761174e-10
1.568062947e-10
1.586633978e-10
5.570152506e-10
5.553181178e-10
5.498857618e-10
5.402137377e-10
5.268065964e-10
5.10417326e-10
4.91558368e-10
4.705045475e-10
4.474058114e-10
4.223516953e-10
3.954963351e-10
3.671432606e-10
3.377350695e-10
3.079814147e-10
2.789067713e-10
2.51840084e-10
2.282597135e-10
2.095339899e-10
1.966293277e-10
1.897813013e-10
1.881808499e-10
1.895443518e-10
5.599688132e-10
5.58601514e-10
5.543344421e-10
5.46947682e-10
5.370843735e-10
5.254583152e-10
5.123822247e-10
4.978295194e-10
4.81606172e-10
4.63394294e-10
4.428521856e-10
4.198111807e-10
3.942378739e-10
3.664382988e-10
3.37197012e-10
3.079055514e-10
2.804837481e-10
2.5705556e-10
2.394845588e-10
2.28822354e-10
2.247787404e-10
2.251853931e-10
5.627338803e-10
5.617807509e-10
5.588308468e-10
5.538626856e-10
5.475507684e-10
5.40509197e-10
5.328722914e-10
5.243994478e-10
5.146786138e-10
5.031825519e-10
4.892574849e-10
4.723620054e-10
4.520071816e-10
4.279692017e-10
4.004909338e-10
3.705928092e-10
3.402521878e-10
3.121919365e-10
2.893198404e-10
2.738749382e-10
2.664874951e-10
2.654096765e-10
5.652884731e-10
5.647949808e-10
5.631907483e-10
5.605197654e-10
5.573530205e-10
5.541403086e-10
5.508634017e-10
5.471883164e-10
5.426734507e-10
5.367898692e-10
5.288287323e-10
5.180824089e-10
5.037706046e-10
4.851980751e-10
4.619417189e-10
4.342028574e-10
4.033869642e-10
3.722601728e-10
3.445748196e-10
3.24015688e-10
3.126438047e-10
3.095736107e-10
5.676101059e-10
5.675697393e-10
5.671975836e-10
5.664477424e-10
5.656615417e-10
5.650903546e-10
5.646176427e-10
5.639323239e-10
5.627411084e-10
5.606810001e-10
5.571842954e-10
5.516384898e-10
5.432013639e-10
5.30902239e-10
5.138929915e-10
4.913825533e-10
4.63647881e-10
4.32632144e-10
4.021849069e-10
3.772744577e-10
3.618525282e-10
3.564344331e-10
5.696786641e-10
5.700420533e-10
5.70676393e-10
5.713197923e-10
5.720161025e-10
5.728411835e-10
5.736614727e-10
5.741764902e-10
5.743521237e-10
5.740277363e-10
5.729627949e-10
5.708398311e-10
5.671412298e-10
5.610163625e-10
5.510053887e-10
5.356672895e-10
5.143320104e-10
4.874132452e-10
4.577074184e-10
4.305646529e-10
4.118549512e-10
4.04075374e-10
5.714978512e-10
5.721739679e-10
5.735379876e-10
5.750496134e-10
5.764633523e-10
5.777557067e-10
5.788530824e-10
5.796765924e-10
5.801501128e-10
5.803256784e-10
5.802245845e-10
5.7963302e-10
5.783215703e-10
5.758579609e-10
5.714618306e-10
5.638046089e-10
5.507779486e-10
5.310761005e-10
5.06066896e-10
4.799420572e-10
4.596298137e-10
4.499827956e-10
5.730798696e-10
5.739661429e-10
5.757966994e-10
5.777684361e-10
5.794120898e-10
5.806955276e-10
5.816663152e-10
5.823708811e-10
5.828631037e-10
5.831703956e-10
5.832979504e-10
5.832803841e-10
5.829611914e-10
5.821697928e-10
5.805517904e-10
5.773985145e-10
5.714171459e-10
5.606035562e-10
5.430106973e-10
5.213388512e-10
5.018448952e-10
4.913526847e-10
5.744454313e-10
5.754455455e-10
5.775287385e-10
5.796935378e-10
5.81321065e-10
5.82423332e-10
5.831733378e-10
5.837035132e-10
5.841014185e-10
5.844092361e-10
5.846403486e-10
5.847607314e-10
5.847894699e-10
5.846326981e-10
5.841616222e-10
5.830665848e-10
5.807157126e-10
5.759273668e-10
5.66756024e-10
5.518151747e-10
5.356257588e-10
5.256522508e-10
5.756200307e-10
5.76652823e-10
5.78831845e-10
5.810389321e-10
5.825618771e-10
5.834702212e-10
5.840310196e-10
5.844220671e-10
5.847351682e-10
5.850046031e-10
5.852363019e-10
5.854317703e-10
5.855611238e-10
5.856102654e-10
5.855471142e-10
5.852548859e-10
5.844436747e-10
5.825664116e-10
5.785309621e-10
5.707288628e-10
5.594725211e-10
5.512986825e-10
5.766294354e-10
5.776320222e-10
5.798000453e-10
5.819788565e-10
5.833973208e-10
5.841685237e-10
5.846107279e-10
5.84921078e-10
5.851855323e-10
5.854207904e-10
5.85618973e-10
5.857838694e-10
5.859297169e-10
5.860578964e-10
5.861148569e-10
5.860983731e-10
5.858740015e-10
5.851853067e-10
5.835403329e-10
5.800125499e-10
5.738772104e-10
5.681988527e-10
5.774967098e-10
5.784231346e-10
5.805062847e-10
5.826320433e-10
5.839922083e-10
5.847003175e-10
5.850912834e-10
5.8537089e-10
5.856198579e-10
5.858387053e-10
5.860042632e-10
5.861190811e-10
5.862062253e-10
5.862954345e-10
5.863998311e-10
5.864527816e-10
5.864337514e-10
5.862029178e-10
5.855215148e-10
5.83952301e-10
5.809974952e-10
5.777649398e-10
5.782460994e-10
5.790590595e-10
5.810100904e-10
5.830735217e-10
5.844331678e-10
5.851467215e-10
5.855388411e-10
5.858213374e-10
5.860747384e-10
5.862906298e-10
5.864246036e-10
5.864815273e-10
5.864935798e-10
5.86499915e-10
5.865428053e-10
5.866117588e-10
5.866469173e-10
5.866001323e-10
5.863245084e-10
5.85558908e-10
5.84077678e-10
5.823937761e-10
5.788842956e-10
5.795744664e-10
5.813502744e-10
5.833515108e-10
5.847548486e-10
5.85529204e-10
5.859622789e-10
5.862691324e-10
5.865361222e-10
5.867542482e-10
5.868647846e-10
5.868837115e-10
5.868020122e-10
5.866999416e-10
5.866558153e-10
5.866646113e-10
5.867096265e-10
5.867291217e-10
5.866454513e-10
5.862591183e-10
5.853890004e-10
5.844220511e-10
5.794066395e-10
5.799819551e-10
5.815425331e-10
5.834389667e-10
5.849278723e-10
5.858255011e-10
5.863397677e-10
5.866899663e-10
5.869759501e-10
5.871986777e-10
5.873071353e-10
5.872957614e-10
5.871459585e-10
5.869206268e-10
5.867466383e-10
5.866792999e-10
5.867006379e-10
5.867437465e-10
5.867401763e-10
5.865874976e-10
5.860180046e-10
5.853461492e-10
5.798089045e-10
5.802884771e-10
5.816115758e-10
5.834006828e-10
5.849165835e-10
5.859675539e-10
5.866217274e-10
5.870442146e-10
5.873601159e-10
5.875922549e-10
5.877091145e-10
5.876805681e-10
5.874875803e-10
5.871734766e-10
5.868516152e-10
5.866624053e-10
5.866021615e-10
5.866481224e-10
5.867154795e-10
5.866969356e-10
5.864353366e-10
5.858967103e-10
5.800948423e-10
5.805016572e-10
5.816042611e-10
5.832689119e-10
5.848054107e-10
5.859337907e-10
5.867178598e-10
5.872666779e-10
5.87641364e-10
5.878973991e-10
5.880253536e-10
5.880004053e-10
5.877890278e-10
5.874096692e-10
5.869757725e-10
5.866287326e-10
5.864454671e-10
5.864030343e-10
5.865317016e-10
5.866828966e-10
5.866410211e-10
5.863099355e-10
5.80292907e-10
5.806297151e-10
5.815411205e-10
5.829942127e-10
5.845236901e-10
5.85761779e-10
5.8664696e-10
5.872692419e-10
5.877382298e-10
5.880578955e-10
5.882158708e-10
5.882018196e-10
5.880079053e-10
5.875915994e-10
5.870683018e-10
5.865943072e-10
5.862445514e-10
5.86075925e-10
5.861705669e-10
5.864996444e-10
5.866904024e-10
5.866022726e-10
5.804689353e-10
5.807115243e-10
5.813928048e-10
5.826000282e-10
5.840157076e-10
5.853470636e-10
5.863860304e-10
5.871346543e-10
5.876719492e-10
5.880411106e-10
5.882509459e-10
5.882678626e-10
5.881013829e-10
5.876799711e-10
5.871048941e-10
5.865346414e-10
5.860188636e-10
5.856786919e-10
5.856924184e-10
5.861472994e-10
5.866242713e-10
5.867353842e-10
5.806808162e-10
5.808197307e-10
5.812557878e-10
5.82149451e-10
5.833495639e-10
5.846282293e-10
5.857966646e-10
5.867400079e-10
5.87415368e-10
5.878838729e-10
5.881560122e-10
5.882058307e-10
5.880819003e-10
5.876957649e-10
5.870942809e-10
5.864276598e-10
5.857534696e-10
5.852105224e-10
5.851350831e-10
5.856567274e-10
5.864171693e-10
5.86753723e-10
5.809012807e-10
5.809776566e-10
5.812311704e-10
5.817684423e-10
5.826413984e-10
5.837298138e-10
5.8487693e-10
5.859343769e-10
5.868182081e-10
5.874703445e-10
5.878708272e-10
5.879927977e-10
5.879023301e-10
5.875716353e-10
5.869723383e-10
5.862405368e-10
5.854085277e-10
5.846735632e-10
5.845183857e-10
5.850793512e-10
5.861058834e-10
5.866853375e-10
5.811420504e-10
5.812158717e-10
5.81406435e-10
5.816949391e-10
5.82145238e-10
5.828409651e-10
5.838078125e-10
5.848739924e-10
5.858802663e-10
5.86711274e-10
5.872913694e-10
5.87560984e-10
5.875352915e-10
5.87294567e-10
5.867442195e-10
5.859573172e-10
5.849508321e-10
5.840526919e-10
5.838651138e-10
5.844487931e-10
5.857368695e-10
5.8655106e-10
5.822042877e-10
5.823108953e-10
5.827173315e-10
5.826904909e-10
5.82634106e-10
5.827223815e-10
5.830252418e-10
5.837347494e-10
5.847602261e-10
5.857387036e-10
5.864980405e-10
5.869500438e-10
5.870364556e-10
5.868807581e-10
5.864109439e-10
5.855518979e-10
5.84349793e-10
5.833391254e-10
5.831777277e-10
5.838239412e-10
5.853667757e-10
5.863890546e-10
5.864844459e-10
5.870119921e-10
5.884877402e-10
5.881246302e-10
5.865598924e-10
5.847178128e-10
5.836560465e-10
5.835272187e-10
5.838076952e-10
5.846575028e-10
5.855928536e-10
5.862280481e-10
5.864740263e-10
5.863853996e-10
5.859597155e-10
5.849847901e-10
5.835794547e-10
5.825566329e-10
5.82488127e-10
5.832649289e-10
5.851104237e-10
5.862532162e-10
5.964278282e-10
6.00537589e-10
6.050824393e-10
6.046314081e-10
6.001764809e-10
5.934469247e-10
5.875459404e-10
5.846621617e-10
5.838949179e-10
5.840237474e-10
5.847274471e-10
5.855134928e-10
5.859072181e-10
5.858575765e-10
5.853818965e-10
5.841958924e-10
5.826531079e-10
5.817610762e-10
5.818299161e-10
5.82961488e-10
5.85018711e-10
5.861854279e-10
6.157763042e-10
6.268909588e-10
6.317880877e-10
6.316904804e-10
6.271998895e-10
6.162245566e-10
5.999482522e-10
5.894294121e-10
5.851892414e-10
5.841388043e-10
5.842301558e-10
5.848812785e-10
5.853816821e-10
5.85309276e-10
5.846545644e-10
5.831860338e-10
5.816582478e-10
5.810269716e-10
5.813191678e-10
5.828810683e-10
5.850245872e-10
5.861683538e-10
6.360694171e-10
6.407834573e-10
6.421823201e-10
6.41966177e-10
6.40931815e-10
6.358303488e-10
6.24062977e-10
6.01605168e-10
5.895094973e-10
5.851903521e-10
5.842693331e-10
5.844107978e-10
5.848580166e-10
5.846963787e-10
5.838171593e-10
5.821294414e-10
5.807354144e-10
5.804194064e-10
5.811064759e-10
5.83225965e-10
5.852821059e-10
5.862177326e-10
6.427098818e-10
6.4331616e-10
6.438083757e-10
6.44143489e-10
6.439691457e-10
6.423708711e-10
6.37347473e-10
6.233802133e-10
6.003328324e-10
5.883332567e-10
5.848991247e-10
5.842846425e-10
5.843385362e-10
5.84032967e-10
5.82924531e-10
5.811441009e-10
5.799548479e-10
5.79987854e-10
5.812449016e-10
5.83980392e-10
5.856594286e-10
5.86269587e-10
6.429914615e-10
6.426639025e-10
6.429652997e-10
6.438917691e-10
6.444400442e-10
6.43887366e-10
6.408297803e-10
6.325656523e-10
6.146713073e-10
5.954832729e-10
5.867431727e-10
5.84571764e-10
5.841198125e-10
5.835552447e-10
5.820170064e-10
5.801262243e-10
5.792902649e-10
5.797877537e-10
5.822004429e-10
5.84768055e-10
5.858710077e-10
5.862168787e-10
6.398162171e-10
6.393952674e-10
6.399404572e-10
6.415860569e-10
6.43337041e-10
6.429415157e-10
6.389469945e-10
6.316660899e-10
6.186118522e-10
6.01815201e-10
5.902707404e-10
5.85519268e-10
5.843479169e-10
5.832501644e-10
5.807701418e-10
5.790175385e-10
5.78698662e-10
5.799916089e-10
5.830502483e-10
5.850410015e-10
5.857370942e-10
5.859928398e-10
6.350340428e-10
6.351652331e-10
6.359282859e-10
6.382772657e-10
6.407420468e-10
6.418000116e-10
6.311059706e-10
6.245115059e-10
6.164453182e-10
6.0374138e-10
5.930198096e-10
5.870843527e-10
5.852450149e-10
5.821771731e-10
5.790533898e-10
5.778233564e-10
5.781799894e-10
5.801278147e-10
5.829320534e-10
5.843797217e-10
5.85096279e-10
5.855557828e-10
6.30475769e-10
6.309470223e-10
6.324875413e-10
6.342581763e-10
6.358245088e-10
6.373383138e-10
6.020036507e-10
6.133513574e-10
6.089602661e-10
6.019718664e-10
5.934932216e-10
5.878631569e-10
5.854677962e-10
5.803374304e-10
5.778232258e-10
5.767390113e-10
5.780882162e-10
5.803109808e-10
5.819752206e-10
5.822371387e-10
5.833373589e-10
5.842826977e-10
6.262031057e-10
6.271067321e-10
6.29033679e-10
6.30466022e-10
6.315723401e-10
6.285701153e-10
5.950426772e-10
6.007866328e-10
5.980063439e-10
5.959043997e-10
5.917168231e-10
5.873132491e-10
5.829583152e-10
5.773405059e-10
5.762540886e-10
5.650418615e-10
5.665264515e-10
5.687047612e-10
5.703357161e-10
5.70592396e-10
5.716706118e-10
5.725970437e-10
6.221611625e-10
6.236445891e-10
6.253720301e-10
6.267827307e-10
6.271608227e-10
6.074989897e-10
5.8687704e-10
5.811211633e-10
5.913860538e-10
5.876871278e-10
5.862650107e-10
5.837726324e-10
5.785620794e-10
5.753134794e-10
5.754659561e-10
5.639436355e-10
5.48662315e-10
5.376246645e-10
5.51277769e-10
5.570018251e-10
5.45527155e-10
5.890613189e-14
6.18596996e-10
6.199907493e-10
6.215384543e-10
6.225936255e-10
6.225836702e-10
6.045854825e-10
5.863669673e-10
5.656344963e-10
5.742307911e-10
5.827339611e-10
5.801271596e-10
5.781861744e-10
5.754322165e-10
5.738145926e-10
5.62339306e-10
5.404875982e-10
5.262286384e-10
5.148639101e-10
5.349258625e-12
1.139553754e-13
6.034564049e-15
6.411540837e-18
6.153495997e-10
6.168659715e-10
6.180903907e-10
6.188201794e-10
6.158030448e-10
5.984813775e-10
5.809732665e-10
5.506764011e-10
5.537722143e-10
5.663331677e-10
5.772132527e-10
5.753738164e-10
5.738835125e-10
5.735733068e-10
5.620989387e-10
5.411015713e-10
5.279602843e-10
5.159061541e-10
4.399508362e-12
2.99421001e-16
2.707972595e-19
7.210480097e-22
6.124470527e-10
6.13882526e-10
6.147659331e-10
6.150609047e-10
5.997176859e-10
5.842998777e-10
5.680705474e-10
5.371251282e-10
5.252458582e-10
5.355815763e-10
5.640215588e-10
5.752084937e-10
5.736740953e-10
5.732531395e-10
5.5901276e-10
5.441694508e-10
5.317727257e-10
5.027633832e-10
1.251476942e-12
7.801111824e-17
5.726590646e-21
7.419052448e-25
6.098405854e-10
6.110968071e-10
6.116589811e-10
6.113272997e-10
5.975701703e-10
5.831184853e-10
5.675038556e-10
5.502586123e-10
5.147377937e-10
5.249320137e-10
5.516778787e-10
5.634141982e-10
5.621330824e-10
5.617230713e-10
5.474344006e-10
5.309700332e-10
5.182782657e-10
3.259877845e-10
1.597592431e-13
9.818125516e-18
7.437907718e-22
8.729724813e-26
6.074848521e-10
6.085511348e-10
6.086165623e-10
5.960419174e-10
5.837284861e-10
5.709484498e-10
5.564593674e-10
5.382900906e-10
5.028319786e-10
5.144144322e-10
5.401481676e-10
5.521439146e-10
5.508629677e-10
5.500995725e-10
5.364112862e-10
5.199148307e-10
3.366109785e-10
3.424090675e-12
2.57092004e-16
1.687073908e-20
1.30353336e-24
1.129460806e-28
6.053637245e-10
6.059430108e-10
6.060142719e-10
5.931486071e-10
5.811662753e-10
5.616476054e-10
5.431603099e-10
4.603524728e-10
4.092347001e-10
4.656941337e-10
4.891740156e-10
4.926512557e-10
5.350025812e-10
5.266731811e-10
3.292394544e-10
7.334894237e-11
3.176344713e-12
8.902012815e-16
1.400765116e-19
1.102743749e-23
9.141454971e-28
6.637564375e-32
6.033944299e-10
6.032695491e-10
6.033004677e-10
5.911095235e-10
5.792848237e-10
5.66406964e-10
1.951196835e-12
1.216297855e-11
2.465619283e-10
4.138989927e-10
4.567702993e-10
4.351880872e-10
3.503336082e-10
5.2623755e-11
3.963017331e-12
8.777413619e-14
2.070689666e-16
2.333210634e-19
3.997002367e-23
4.170264814e-27
4.015749519e-31
2.177388128e-35
6.015216043e-10
6.003006165e-10
6.001941799e-10
5.8816648e-10
5.764018721e-10
5.522840119e-10
6.934307448e-13
7.313096118e-14
1.594002159e-11
1.321406365e-10
2.157922712e-10
2.139748489e-10
9.336674612e-12
4.412048571e-13
2.375819746e-14
2.087943667e-16
1.740129642e-19
6.662082723e-23
1.096850731e-26
1.411751913e-30
1.508101621e-34
6.383825507e-39
5.99609385e-10
5.966956863e-10
5.964939037e-10
5.845609477e-10
5.728677086e-10
4.138453484e-11
3.038876882e-14
0
0
1.122797812e-12
7.443458854e-12
1.453708127e-12
2.037243956e-13
9.220551794e-15
1.647451851e-16
6.832794643e-19
4.489772775e-22
8.694255332e-26
9.977352186e-30
1.108770224e-33
9.534169179e-38
2.990177089e-42
5.973762053e-10
5.922728107e-10
5.919661472e-10
5.801267498e-10
5.613814213e-10
2.627317397e-11
0
3.70147192e-19
0
1.043112181e-14
1.230801488e-13
9.344766625e-15
2.311519216e-15
1.177002868e-16
1.0608475e-18
2.219278496e-21
1.168268003e-24
2.188340163e-28
2.358999035e-32
2.259481769e-36
1.291441672e-40
1.869694266e-45
5.956333318e-10
5.846521268e-10
5.845347282e-10
5.728440334e-10
5.494451746e-10
7.277813699e-12
5.116603676e-16
0
1.006556421e-18
9.001704429e-17
1.241059962e-15
8.664072326e-17
2.322395352e-17
9.589898178e-19
4.924375581e-21
6.394613723e-24
2.863668285e-27
4.819544284e-31
5.144262078e-35
4.161632592e-39
1.788809491e-43
2.071301092e-48
5.904992146e-10
5.762292668e-10
5.751580355e-10
5.636548747e-10
4.942662399e-10
3.386160672e-12
6.542879042e-16
0
7.323428632e-21
8.535317659e-19
1.131076933e-17
8.262309566e-19
2.107443626e-19
5.970926257e-21
1.8684643e-23
1.737529287e-26
6.641759135e-30
9.42834396e-34
9.206851275e-38
5.338516941e-42
9.048042147e-47
1.631054095e-52
5.82775581e-10
5.655043475e-10
5.622297104e-10
5.509851162e-10
4.493018087e-10
5.464058368e-13
0
1.916409649e-19
0
8.406934031e-21
1.026189151e-19
7.922425946e-21
2.039620083e-21
3.420526148e-23
6.695313957e-26
4.492729005e-29
1.330769006e-32
1.545657232e-36
1.171355578e-40
4.504661557e-45
5.224999773e-50
3.912205358e-56
5.739771937e-10
5.390190507e-10
5.360420287e-10
5.253211882e-10
1.845210433e-10
1.084730787e-13
7.345330643e-18
0
1.737617324e-24
1.02882694e-22
1.006598952e-21
7.205628788e-23
6.338163442e-24
1.103152035e-25
1.605593826e-28
7.922406124e-32
1.672214912e-35
1.521989031e-39
7.238037e-44
9.050520603e-49
5.854528342e-55
7.001609099e-61
5.555829933e-10
5.158219177e-10
5.124786334e-10
5.022290607e-10
1.128204671e-10
4.205092582e-14
0
9.527720599e-22
1.917379975e-25
4.445383496e-25
2.960357489e-24
3.602694313e-25
5.667574516e-27
2.24179236e-28
2.4208453e-31
8.534659349e-35
1.227990657e-38
7.7788347e-43
2.166082632e-47
1.765124267e-52
1.099343308e-57
1.154882392e-62
5.421480236e-10
4.932642659e-10
4.894877608e-10
4.796980056e-10
1.508426977e-11
9.15950196e-16
1.124735624e-20
2.306935409e-24
1.945807773e-27
3.044339977e-28
3.568970362e-27
1.249715162e-27
1.024936129e-29
2.861616766e-31
2.299638612e-34
5.699900503e-38
5.27007519e-42
2.132152418e-46
3.067991856e-51
1.991906056e-56
2.459316834e-61
3.988930003e-66
5.205344312e-10
4.702496491e-10
4.664313762e-10
4.571027487e-10
6.065555422e-13
1.961227017e-16
8.392693651e-20
3.594375942e-23
2.517808781e-26
1.851605781e-29
7.413440076e-30
3.009043592e-30
1.67006092e-32
2.299593996e-34
1.332624184e-37
2.212084237e-41
1.187725304e-45
1.701921737e-50
1.202915825e-55
1.592982814e-60
2.107465621e-65
2.88243797e-70
4.907687743e-10
4.540204495e-10
4.507207185e-10
4.417063042e-10
2.831650085e-13
1.754929509e-16
1.173389537e-19
8.288251016e-23
7.003078958e-26
5.875678846e-29
6.22205886e-32
4.746325421e-33
1.818657495e-35
1.110066322e-37
4.2812798e-41
4.192110968e-45
9.80913875e-50
7.815175009e-55
9.546981188e-60
1.262274547e-64
1.658426148e-69
2.843540789e-74
4.858949312e-10
4.439964782e-10
4.402250599e-10
4.314205587e-10
2.787853037e-13
2.418744993e-16
2.022604881e-19
1.670243672e-22
1.437944672e-25
1.161304236e-28
8.319866367e-32
5.239034111e-35
3.066970529e-38
3.41664847e-41
7.311231009e-45
4.146436709e-49
9.099292297e-54
1.399936099e-58
1.958253001e-63
2.383872107e-68
2.831764018e-73
4.915480669e-78
4.760140253e-10
4.271730402e-10
4.227211257e-10
4.142667032e-10
5.302680276e-13
5.828515938e-16
5.470245151e-19
4.658069088e-22
3.789396497e-25
2.711363742e-28
1.593957257e-31
6.978003212e-35
2.060655107e-38
3.768872066e-42
2.967415896e-46
2.858905714e-51
2.180505128e-56
3.294700711e-61
4.480624693e-66
5.19139818e-71
5.650102699e-76
9.217615733e-81
4.874536199e-10
4.154659787e-10
4.09396015e-10
4.012080947e-10
5.037111102e-13
6.436465455e-16
6.597973847e-19
5.680023786e-22
4.406546569e-25
2.861006737e-28
1.444534573e-31
5.108520903e-35
1.114342697e-38
1.157684566e-42
4.052074665e-47
8.067838632e-52
1.317485315e-56
2.051015768e-61
2.848086005e-66
3.289857329e-71
3.364150152e-76
5.512191305e-81
4.532710764e-10
3.861307588e-10
3.804924247e-10
3.728825762e-10
4.431879056e-13
6.062201665e-16
6.698627281e-19
5.846596608e-22
4.468098416e-25
2.790419926e-28
1.317679389e-31
4.235095916e-35
8.456997284e-39
9.356386428e-43
3.438036944e-47
2.848361329e-52
4.815045315e-57
7.759539315e-62
1.107747223e-66
1.285625995e-71
1.199263487e-76
1.876673442e-81
4.218869357e-10
3.671465521e-10
3.61724189e-10
3.544897053e-10
6.828414701e-13
1.463838681e-15
1.709461584e-18
1.588854557e-21
1.21946429e-24
7.615320169e-28
3.786867954e-31
1.256687338e-34
2.442827072e-38
3.096260086e-42
2.049748299e-46
3.63427591e-51
6.546466612e-56
1.091028226e-60
1.601264974e-65
1.892673868e-70
1.662727074e-75
2.425279664e-80
3.917053931e-10
3.481479716e-10
3.438331746e-10
3.369565111e-10
5.116024615e-13
9.094094529e-16
1.099865755e-18
1.012701649e-21
7.876057625e-25
4.995714087e-28
2.457257952e-31
7.969206338e-35
1.444634822e-38
9.691141464e-43
1.282039922e-47
2.358920997e-52
4.261095463e-57
7.487352784e-62
1.128400928e-66
1.345072036e-71
1.24920556e-76
1.785973148e-81
3.778172738e-10
3.428546919e-10
3.373844631e-10
3.306367738e-10
4.313345472e-13
6.651412772e-16
8.173580266e-19
7.296534393e-22
5.742259633e-25
3.701285062e-28
1.758380581e-31
5.513419772e-35
1.279306744e-38
1.543166221e-42
2.199283495e-47
4.162056661e-52
7.738923874e-57
1.37692723e-61
2.12488263e-66
2.555719923e-71
2.333186955e-76
3.112381612e-81
3.925497986e-10
3.267873765e-10
3.19547717e-10
3.131567626e-10
2.755160404e-13
3.67563933e-16
4.485748209e-19
3.995291771e-22
3.168379527e-25
2.070829242e-28
9.967034879e-32
3.293655761e-35
8.089165754e-39
1.266866709e-42
7.112819003e-47
1.379951921e-51
2.631809765e-56
4.822917875e-61
7.621953158e-66
9.259314446e-71
8.31010811e-76
1.027562961e-80
3.634273485e-10
3.016651698e-10
2.949079201e-10
2.890097617e-10
2.897959171e-13
3.487001035e-16
4.169604138e-19
3.679718413e-22
2.927497478e-25
1.936553044e-28
9.486723142e-32
3.437354239e-35
8.369460599e-39
7.954626259e-43
2.032358997e-47
4.022540228e-52
7.817062345e-57
1.469172827e-61
2.383865222e-66
2.940220848e-71
2.599536135e-76
2.911087937e-81
3.26607391e-10
2.720694694e-10
2.659481352e-10
2.606291725e-10
1.938807677e-13
2.353802881e-16
2.776274183e-19
2.5131727e-22
3.47509946e-25
4.391429458e-28
2.46517347e-31
1.088891984e-34
3.432751212e-38
4.991785481e-42
1.052300005e-46
2.109147718e-51
4.135000929e-56
7.912830263e-61
1.320428939e-65
1.663479183e-70
1.455421914e-75
1.388638082e-80
2.95237655e-10
2.437390739e-10
2.377779357e-10
2.33022377e-10
4.419344436e-13
1.150440928e-15
1.337273776e-18
1.230507653e-21
1.757441555e-24
2.31197672e-27
1.567403595e-30
8.597199589e-34
2.582566705e-37
3.26376282e-41
4.113675281e-46
8.275388331e-51
1.619990702e-55
3.129896416e-60
5.359650606e-65
6.914393453e-70
6.020216335e-75
4.740463798e-80
2.616417121e-10
2.186654769e-10
2.137604158e-10
2.094852075e-10
1.995763255e-13
2.336210014e-16
2.750004312e-19
2.637683852e-22
3.54538991e-25
4.220454053e-28
3.213672644e-31
1.943809946e-34
4.554765908e-38
3.806268468e-42
1.058832563e-46
2.114246222e-51
4.098891048e-56
7.930860719e-61
1.383247029e-65
1.821517789e-70
1.587317348e-75
1.382122859e-80
2.280830834e-10
1.945475091e-10
1.907974322e-10
1.869814836e-10
2.006258771e-13
2.80938374e-16
3.7133028e-19
4.971336353e-22
7.984888181e-25
8.542248382e-28
6.553981571e-31
5.079607263e-34
2.106800959e-37
1.926410026e-41
4.55912657e-46
8.947864125e-51
1.713811658e-55
3.305163716e-60
5.810445114e-65
7.751111675e-70
6.758853122e-75
5.223801568e-80
1.88905602e-10
1.710668535e-10
1.68982334e-10
1.656026874e-10
2.1464845e-13
4.10966699e-16
6.213716748e-19
1.012485427e-21
1.859423183e-24
1.978898966e-27
1.505598258e-30
1.005300167e-33
3.602444483e-37
4.267360414e-41
1.071725119e-45
2.05850773e-50
3.923593996e-55
7.558723828e-60
1.325987814e-64
1.773550477e-69
1.550756936e-74
9.860885938e-80
1.589750153e-10
1.510731957e-10
1.497334985e-10
1.467388285e-10
1.677846142e-13
2.802636322e-16