/*--------------------------------*- C++ -*----------------------------------*\
  =========                 |
  \\      /  F ield         | OpenFOAM: The Open Source CFD Toolbox
   \\    /   O peration     | Website:  https://openfoam.org
    \\  /    A nd           | Version:  9
     \\/     M anipulation  |
\*---------------------------------------------------------------------------*/
FoamFile
{
    format      ascii;
    class       surfaceScalarField;
    location    "10";
    object      phi;
}
// * * * * * * * * * * * * * * * * * * * * * * * * * * * * * * * * * * * * * //

dimensions      [0 3 -1 0 0 0 0];

internalField   nonuniform List<scalar> 
4305
(
5.300238656e-08
-9.305305854e-07
1.415626696e-07
-2.540513211e-06
2.418667273e-07
-3.794347196e-06
3.311668017e-07
-4.601389123e-06
3.89056397e-07
-4.938640605e-06
4.09677462e-07
-4.869366384e-06
3.900074602e-07
-4.486485308e-06
3.40791531e-07
-3.853741946e-06
2.743164659e-07
-3.093079311e-06
2.020023381e-07
-2.273785536e-06
1.322165689e-07
-1.445351655e-06
7.094006061e-08
-6.450165521e-07
3.096455338e-08
7.370846273e-08
1.12610708e-08
6.755599036e-07
2.610723889e-09
1.14864738e-06
-7.687345589e-10
1.474383466e-06
-1.685145662e-09
1.647665877e-06
-1.611706643e-09
1.67129749e-06
-1.156780286e-09
1.549281829e-06
-5.7384302e-10
1.285510165e-06
-7.469656496e-11
8.82527767e-07
3.411973658e-07
4.52371279e-08
-9.758644831e-07
1.438705619e-07
-2.639464706e-06
2.598947471e-07
-3.910908424e-06
3.599588265e-07
-4.702133663e-06
4.198934059e-07
-4.99927877e-06
4.380913179e-07
-4.888185797e-06
4.089104853e-07
-4.45778678e-06
3.491484503e-07
-3.794353463e-06
2.732905983e-07
-3.017594e-06
1.945773551e-07
-2.195563071e-06
1.237762948e-07
-1.375204051e-06
7.121766293e-08
-5.931047422e-07
3.456950074e-08
1.103222796e-07
9.925976236e-09
7.009588876e-07
-3.012146885e-09
1.162429863e-06
-8.536008473e-09
1.480518536e-06
-9.534633661e-09
1.649028713e-06
-8.174580001e-09
1.670137015e-06
-5.685996359e-09
1.546903455e-06
-2.954178787e-09
1.28284418e-06
-7.968196671e-10
8.804106642e-07
3.40416003e-07
4.792095173e-08
-1.023914265e-06
1.537874279e-07
-2.745702906e-06
2.768909353e-07
-4.034584414e-06
3.790136895e-07
-4.804944419e-06
4.3591291e-07
-5.056876155e-06
4.4653437e-07
-4.899413572e-06
4.087142732e-07
-4.420410401e-06
3.412518476e-07
-3.727180674e-06
2.591553394e-07
-2.935731617e-06
1.76060948e-07
-2.112767733e-06
1.031975539e-07
-1.302762792e-06
4.847193076e-08
-5.387820294e-07
1.187893572e-08
1.469122935e-07
-1.112908752e-08
7.245028121e-07
-2.279579315e-08
1.174829706e-06
-2.658477486e-08
1.48493813e-06
-2.467167563e-08
1.647547386e-06
-1.984128047e-08
1.66556976e-06
-1.360971841e-08
1.540827011e-06
-7.27037313e-09
1.276598521e-06
-2.225854494e-09
8.754214962e-07
3.382106744e-07
5.095834631e-08
-1.075019151e-06
1.644308911e-07
-2.859575204e-06
2.936796829e-07
-4.164433566e-06
3.961165025e-07
-4.908096645e-06
4.466975304e-07
-5.108176446e-06
4.48322512e-07
-4.901646783e-06
3.998727915e-07
-4.372373678e-06
3.225144738e-07
-3.650037667e-06
2.325584407e-07
-2.845882004e-06
1.440984511e-07
-2.024431022e-06
6.797285155e-08
-1.226830447e-06
1.097240208e-08
-4.819670743e-07
-2.597266743e-08
1.839079426e-07
-4.660443931e-08
7.455414746e-07
-5.468838848e-08
1.183523453e-06
-5.394280121e-08
1.484784169e-06
-4.658644614e-08
1.640643926e-06
-3.609950226e-08
1.655386191e-06
-2.430618496e-08
1.529225392e-06
-1.290757856e-08
1.265319742e-06
-3.959890949e-09
8.665445334e-07
3.342765528e-07
5.552041706e-08
-1.13069732e-06
1.766820098e-07
-2.981158748e-06
3.096372111e-07
-4.298015965e-06
4.087878789e-07
-5.007988679e-06
4.511486863e-07
-5.151275704e-06
4.411599288e-07
-4.892267999e-06
3.797195529e-07
-4.311317353e-06
2.921102002e-07
-3.56257575e-06
1.946848624e-07
-2.748449509e-06
1.011830773e-07
-1.930890424e-06
2.192663786e-08
-1.147581443e-06
-3.679616948e-08
-4.23259495e-07
-7.363853416e-08
2.20864104e-07
-9.155325725e-08
7.637984143e-07
-9.486219316e-08
1.187343475e-06
-8.798470081e-08
1.47844035e-06
-7.361668412e-08
1.626720594e-06
-5.590944515e-08
1.6380019e-06
-3.712482347e-08
1.510658738e-06
-1.954659886e-08
1.247883738e-06
-5.970826647e-09
8.530539619e-07
3.283367333e-07
6.073982666e-08
-1.191602674e-06
1.889221782e-07
-3.109783232e-06
3.229784012e-07
-4.432726232e-06
4.153327896e-07
-5.101111468e-06
4.464791848e-07
-5.1831816e-06
4.206133795e-07
-4.867016024e-06
3.471130336e-07
-4.238177839e-06
2.500864231e-07
-3.465635435e-06
1.462078594e-07
-2.64446515e-06
4.877827202e-08
-1.833287848e-06
-3.249876899e-08
-1.066157479e-06
-9.178669508e-08
-3.638488311e-07
-1.275500147e-07
2.568080485e-07
-1.421562982e-07
7.787227451e-07
-1.400223891e-07
1.185651954e-06
-1.260581136e-07
1.464953134e-06
-1.03736422e-07
1.604821098e-06
-7.784108577e-08
1.612434104e-06
-5.114830211e-08
1.484200523e-06
-2.670228252e-08
1.223597421e-06
-8.104489645e-09
8.345539208e-07
3.202678277e-07
6.640369145e-08
-1.258177293e-06
2.004957581e-07
-3.244337133e-06
3.32544175e-07
-4.565455858e-06
4.140940407e-07
-5.183456929e-06
4.31669451e-07
-5.201537987e-06
3.882400397e-07
-4.824206784e-06
3.025626496e-07
-4.152844161e-06
1.97010641e-07
-3.360119288e-06
8.805652074e-08
-2.535317883e-06
-1.171878592e-08
-1.733223056e-06
-9.33800059e-08
-9.842172e-07
-1.516152227e-07
-3.053732162e-07
-1.849106966e-07
2.903524978e-07
-1.952888125e-07
7.894203231e-07
-1.870987149e-07
1.177861772e-06
-1.654936079e-07
1.443778528e-06
-1.347549738e-07
1.57447818e-06
-1.001700577e-07
1.57817261e-06
-6.527445123e-08
1.449548909e-06
-3.381074989e-08
1.192306878e-06
-1.018360619e-08
8.110353235e-07
3.10123995e-07
7.218305438e-08
-1.33053546e-06
2.103205887e-07
-3.382956612e-06
3.366167389e-07
-4.692460275e-06
4.028994149e-07
-5.25056111e-06
4.04273958e-07
-5.203712219e-06
3.424483459e-07
-4.763004293e-06
2.451103955e-07
-4.055833778e-06
1.326022857e-07
-3.24760913e-06
2.059798651e-08
-2.423050171e-06
-7.935752151e-08
-1.632878507e-06
-1.592545916e-07
-9.039263727e-07
-2.144087229e-07
-2.498722573e-07
-2.435021278e-07
3.197649161e-07
-2.484141167e-07
7.946707303e-07
-2.334023258e-07
1.163228968e-06
-2.037441831e-07
1.414517444e-06
-1.645599088e-07
1.535665742e-06
-1.213328001e-07
1.535261515e-06
-7.84431092e-08
1.406908366e-06
-4.030899846e-08
1.154356407e-06
-1.203765103e-08
7.828819931e-07
2.981298561e-07
7.769557109e-08
-1.408409804e-06
2.16830854e-07
-3.522594117e-06
3.322912383e-07
-4.808654085e-06
3.796972042e-07
-5.298811897e-06
3.611507526e-07
-5.185982028e-06
2.81221546e-07
-4.683694816e-06
1.73314836e-07
-3.948224257e-06
5.605774772e-08
-3.130307984e-06
-5.635303609e-08
-2.310309677e-06
-1.537349458e-07
-1.535015439e-06
-2.291947735e-07
-8.279653954e-07
-2.78811035e-07
-1.998075643e-07
-3.016209041e-07
3.429675503e-07
-2.995300023e-07
7.929514832e-07
-2.767410202e-07
1.140816707e-06
-2.386906379e-07
1.376845184e-06
-1.912493872e-07
1.488579493e-06
-1.398712578e-07
1.484193521e-06
-8.967170682e-08
1.356962565e-06
-4.568007467e-08
1.110558613e-06
-1.351166333e-08
7.508412523e-07
2.846657774e-07
8.242948654e-08
-1.49102231e-06
2.182586401e-07
-3.658945562e-06
3.168637621e-07
-4.908013989e-06
3.407400113e-07
-5.323550841e-06
2.977407421e-07
-5.14381035e-06
2.011175201e-07
-4.587696527e-06
8.461756203e-08
-3.832008867e-06
-3.453207188e-08
-3.011062235e-06
-1.440028784e-07
-2.200437293e-06
-2.353485612e-07
-1.44309829e-06
-3.030478527e-07
-7.596619498e-07
-3.441231441e-07
-1.581821384e-07
-3.581330011e-07
3.57451181e-07
-3.471679129e-07
7.824061379e-07
-3.154583321e-07
1.109500256e-06
-2.686483758e-07
1.330410956e-06
-2.132194498e-07
1.433499839e-06
-1.544706893e-07
1.425755142e-06
-9.807271565e-08
1.300826291e-06
-4.946152697e-08
1.062153729e-06
-1.446990146e-08
7.159887401e-07
2.702482635e-07
8.550847644e-08
-1.576719043e-06
2.118922882e-07
-3.785869863e-06
2.858905489e-07
-4.982781275e-06
2.805735433e-07
-5.319104517e-06
2.098712156e-07
-5.073939242e-06
9.764617503e-08
-4.476095688e-06
-2.502011641e-08
-3.709619703e-06
-1.425679232e-07
-2.893392123e-06
-2.449657414e-07
-2.097580489e-06
-3.259570151e-07
-1.361449383e-06
-3.817405e-07
-7.031712011e-07
-4.105358578e-07
-1.287289657e-07
-4.126275735e-07
3.601105809e-07
-3.904629826e-07
7.607281529e-07
-3.484267431e-07
1.06789546e-06
-2.923213242e-07
1.274699439e-06
-2.291620169e-07
1.370700118e-06
-1.640243125e-07
1.360939284e-06
-1.02871131e-07
1.239950941e-06
-5.124001621e-08
1.010747564e-06
-1.478899853e-08
6.796925439e-07
2.555183639e-07
8.577260126e-08
-1.662686548e-06
1.940148086e-07
-3.894666844e-06
2.338840532e-07
-5.023423722e-06
1.926866004e-07
-5.278773031e-06
9.173554718e-08
-4.973801895e-06
-3.516734509e-08
-4.349787014e-06
-1.61414724e-07
-3.58362269e-06
-2.733564764e-07
-2.781304939e-06
-3.637595483e-07
-2.006676864e-06
-4.290952012e-07
-1.295380481e-06
-4.677579502e-07
-6.636963695e-07
-4.795315516e-07
-1.161787922e-07
-4.657172871e-07
3.46977933e-07
-4.293359408e-07
7.249270612e-07
-3.750791814e-07
1.014137791e-06
-3.088685111e-07
1.20892861e-06
-2.380884268e-07
1.300313211e-06
-1.676227683e-07
1.290824971e-06
-1.033883274e-07
1.17602418e-06
-5.063170239e-08
9.582444282e-07
-1.434604342e-08
6.435840691e-07
2.412406635e-07
8.15170823e-08
-1.744405761e-06
1.597542852e-07
-3.973466066e-06
1.544740176e-07
-5.018907305e-06
6.932795642e-08
-5.194471192e-06
-6.361142265e-08
-4.841635738e-06
-2.052081928e-07
-4.208743538e-06
-3.326376523e-07
-3.456408263e-06
-4.34698504e-07
-2.679065461e-06
-5.075041857e-07
-1.933328371e-06
-5.508388487e-07
-1.251243533e-06
-5.658936855e-07
-6.477221898e-07
-5.545566991e-07
-1.266051552e-07
-5.19588903e-07
3.128339862e-07
-4.649072201e-07
6.709563813e-07
-3.956838318e-07
9.455215197e-07
-3.180253554e-07
1.13179454e-06
-2.394095961e-07
1.222157569e-06
-1.64586105e-07
1.216409174e-06
-9.9042385e-08
1.110838489e-06
-4.726786459e-08
9.067669423e-07
-1.300756214e-08
6.095331029e-07
2.283145718e-07
6.921549022e-08
-1.813829958e-06
1.044443405e-07
-4.009254062e-06
4.052546887e-08
-4.955727954e-06
-9.738176463e-08
-5.057361449e-06
-2.648658248e-07
-4.674870401e-06
-4.224671844e-07
-4.051651149e-06
-5.49393752e-07
-3.329666544e-06
-6.375596409e-07
-2.590696266e-06
-6.86832868e-07
-1.883476287e-06
-7.008798161e-07
-1.236331831e-06
-6.843944384e-07
-6.631812905e-07
-6.421210669e-07
-1.678197273e-07
-5.789632621e-07
2.506740669e-07
-5.00260382e-07
5.931408015e-07
-4.119783866e-07
8.580070692e-07
-3.205157144e-07
1.040992572e-06
-2.331900752e-07
1.135404848e-06
-1.546130097e-07
1.138333595e-06
-8.942190438e-08
1.046084213e-06
-4.081893809e-08
8.585248841e-07
-1.062995157e-08
5.79598499e-07
2.177841208e-07
4.510270397e-08
-1.85914479e-06
2.062685639e-08
-3.985320321e-06
-1.162543403e-07
-4.819546826e-06
-3.152616941e-07
-4.859086038e-06
-5.225302003e-07
-4.468244745e-06
-6.988690219e-07
-3.875751877e-06
-8.252822705e-07
-3.203392478e-06
-8.967932988e-07
-2.518960928e-06
-9.17026353e-07
-1.862648269e-06
-8.939792447e-07
-1.258470152e-06
-8.366154211e-07
-7.194276732e-07
-7.53508501e-07
-2.497199339e-07
-6.527074465e-07
1.510672424e-07
-5.418343272e-07
4.833753058e-07
-4.282418841e-07
7.454006928e-07
-3.188980868e-07
9.325079938e-07
-2.207331849e-07
1.037983549e-06
-1.381643597e-07
1.056408543e-06
-7.451148633e-08
9.829841386e-07
-3.110204991e-08
8.155673314e-07
-7.090631478e-09
5.559035722e-07
2.108178489e-07
1.019011256e-08
-1.869545665e-06
-9.70104061e-08
-3.878630706e-06
-3.214103784e-07
-4.595788491e-06
-5.923082497e-07
-4.588833956e-06
-8.474849454e-07
-4.213611204e-06
-1.047926305e-06
-3.675664785e-06
-1.17684775e-06
-3.074559861e-06
-1.231637766e-06
-2.463935863e-06
-1.219052512e-06
-1.874651372e-06
-1.151566229e-06
-1.325050067e-06
-1.04310074e-06
-8.267317192e-07
-9.071231382e-07
-3.843788954e-07
-7.562174614e-07
1.536626272e-09
-6.016053923e-07
3.301076451e-07
-4.530924549e-07
5.981356735e-07
-3.189126942e-07
7.994445434e-07
-2.056770931e-07
9.257239395e-07
-1.171909293e-07
9.687641013e-07
-5.513727531e-08
9.216440512e-07
-1.831025273e-08
7.793162599e-07
-2.361196096e-09
5.403548272e-07
2.086147831e-07
-4.125196981e-08
-1.828496089e-06
-2.540638798e-07
-3.666283753e-06
-5.801395447e-07
-4.270274249e-06
-9.356373006e-07
-4.233874179e-06
-1.249654051e-06
-3.900024881e-06
-1.483711447e-06
-3.441874519e-06
-1.622787773e-06
-2.935535019e-06
-1.665328026e-06
-2.421183658e-06
-1.619832819e-06
-1.919638207e-06
-1.502796072e-06
-1.441272264e-06
-1.33345291e-06
-9.949792773e-07
-1.131050205e-06
-5.85461508e-07
-9.143349783e-07
-2.137133993e-07
-7.000402833e-07
1.173338011e-07
-5.022197678e-07
4.018075463e-07
-3.315745196e-07
6.30193387e-07
-1.952643382e-07
7.906650422e-07
-9.616354728e-08
8.707529242e-07
-3.361032874e-08
8.600120375e-07
-3.352842269e-09
7.497972058e-07
3.363213711e-09
5.341503036e-07
2.121824473e-07
-1.126119329e-07
-1.716069402e-06
-4.496168444e-07
-3.32968269e-06
-8.955006604e-07
-3.824856322e-06
-1.349694397e-06
-3.780100558e-06
-1.736559373e-06
-3.513479284e-06
-2.018587318e-06
-3.16004501e-06
-2.181380678e-06
-2.772795149e-06
-2.22268568e-06
-2.379757029e-06
-2.150514024e-06
-1.991480177e-06
-1.983710866e-06
-1.607501874e-06
-1.746547349e-06
-1.23130494e-06
-1.464420523e-06
-8.664895782e-07
-1.163670716e-06
-5.131303795e-07
-8.688624953e-07
-1.759668475e-07
-6.01068789e-07
1.356112603e-07
-3.758410185e-07
4.065596596e-07
-2.023018086e-07
6.186318287e-07
-8.30924425e-08
7.528986582e-07
-1.44319652e-08
7.925152582e-07
1.179694139e-08
7.245071165e-07
9.630818975e-09
5.369713237e-07
2.220804861e-07
-2.022637687e-07
-1.513963583e-06
-6.793979062e-07
-2.852878505e-06
-1.263441426e-06
-3.241174781e-06
-1.831527366e-06
-3.212319264e-06
-2.309103966e-06
-3.036132277e-06
-2.658701243e-06
-2.810620154e-06
-2.865100486e-06
-2.566518853e-06
-2.924384142e-06
-2.320539976e-06
-2.841102725e-06
-2.074750049e-06
-2.632267885e-06
-1.816199594e-06
-2.326590551e-06
-1.536661031e-06
-1.955059155e-06
-1.237463709e-06
-1.552027844e-06
-9.153219085e-07
-1.151947132e-06
-5.749136573e-07
-7.865001276e-07
-2.284433213e-07
-4.80077285e-07
1.017006665e-07
-2.467980514e-07
3.869722339e-07
-9.065020901e-08
5.983110581e-07
-4.957212105e-09
7.082250131e-07
2.369260725e-08
6.970226148e-07
1.552278387e-08
5.45972619e-07
2.37953816e-07
-3.068399724e-07
-1.20724482e-06
-9.372231744e-07
-2.222743329e-06
-1.669755931e-06
-2.508902188e-06
-2.367417943e-06
-2.514865012e-06
-2.957244495e-06
-2.446481432e-06
-3.398585248e-06
-2.369476746e-06
-3.672262913e-06
-2.293100353e-06
-3.776663785e-06
-2.216474985e-06
-3.70915164e-06
-2.14267415e-06
-3.47672505e-06
-2.049081518e-06
-3.112259035e-06
-1.901548119e-06
-2.650316954e-06
-1.699696552e-06
-2.131752332e-06
-1.433929381e-06
-1.601510284e-06
-1.104847822e-06
-1.105303367e-06
-7.239271004e-07
-6.819564286e-07
-3.205143396e-07
-3.561318601e-07
6.258805248e-08
-1.363883673e-07
3.801581607e-07
-1.5270841e-08
5.886727402e-07
2.752496434e-08
6.556072607e-07
1.966772433e-08
5.548593496e-07
2.58076187e-07
-4.170479136e-07
-7.902742755e-07
-1.206618349e-06
-1.433338005e-06
-2.090592408e-06
-1.625101179e-06
-2.928353133e-06
-1.677250529e-06
-3.650422308e-06
-1.724576758e-06
-4.21510593e-06
-1.80505761e-06
-4.58798775e-06
-1.920648164e-06
-4.756369682e-06
-2.048724341e-06
-4.734200045e-06
-2.165686219e-06
-4.516626458e-06
-2.267689194e-06
-4.118935396e-06
-2.300384611e-06
-3.57961501e-06
-2.240192187e-06
-2.944620328e-06
-2.070000382e-06
-2.266999028e-06
-1.783291421e-06
-1.60737102e-06
-1.383929058e-06
-1.024977046e-06
-9.026889807e-07
-5.630418044e-07
-3.985207008e-07
-2.417712027e-07
6.019721157e-08
-5.739548614e-08
4.058527356e-07
1.7675431e-08
5.820643715e-07
2.033333296e-08
5.534244895e-07
2.78983554e-07
-5.229586467e-07
-2.673462206e-07
-1.46117112e-06
-4.952146677e-07
-2.488168908e-06
-5.982151334e-07
-3.463305006e-06
-7.022377907e-07
-4.321831346e-06
-8.66241005e-07
-5.021783821e-06
-1.105444657e-06
-5.532893013e-06
-1.410088836e-06
-5.826804174e-06
-1.755611666e-06
-5.884813064e-06
-2.10874745e-06
-5.711771467e-06
-2.442077455e-06
-5.317582267e-06
-2.696170863e-06
-4.731002627e-06
-2.828575177e-06
-3.99892889e-06
-2.803965152e-06
-3.175807169e-06
-2.608220706e-06
-2.332138965e-06
-2.229112241e-06
-1.550563443e-06
-1.685251956e-06
-9.021514587e-07
-1.047148367e-06
-4.304794653e-07
-4.108651395e-07
-1.437556913e-07
1.203804214e-07
-1.121550425e-08
4.510447563e-07
1.637582718e-08
5.271974694e-07
2.960523959e-07
-6.116575133e-07
3.443257894e-07
-1.673039164e-06
5.661406766e-07
-2.82234724e-06
5.510171538e-07
-3.921300952e-06
3.965875515e-07
-4.909940342e-06
1.221758345e-07
-5.746891543e-06
-2.688680809e-07
-6.397110501e-06
-7.604340183e-07
-6.829682798e-06
-1.323799352e-06
-7.015805022e-06
-1.923600001e-06
-6.945354821e-06
-2.513716339e-06
-6.612519611e-06
-3.030421757e-06
-6.030366565e-06
-3.412389358e-06
-5.24436573e-06
-3.591885631e-06
-4.307678265e-06
-3.547077893e-06
-3.287990758e-06
-3.251067316e-06
-2.285270046e-06
-2.689988398e-06
-1.404125863e-06
-1.92968115e-06
-7.262504561e-07
-1.089191112e-06
-2.874352872e-07
-3.178665295e-07
-6.524971053e-08
2.3011251e-07
6.568108308e-09
4.567541547e-07
3.034023693e-07
-6.67710671e-07
1.012089548e-06
-1.809510994e-06
1.707961364e-06
-3.042354397e-06
1.783801583e-06
-4.230263733e-06
1.584362217e-06
-5.317388122e-06
1.209084644e-06
-6.264226532e-06
6.776679399e-07
-7.036845769e-06
1.182031385e-08
-7.606910539e-06
-7.541763298e-07
-7.951190557e-06
-1.579884604e-06
-8.039673454e-06
-2.425925063e-06
-7.840642369e-06
-3.230322746e-06
-7.334699537e-06
-3.919457769e-06
-6.554837589e-06
-4.373191137e-06
-5.57059638e-06
-4.53310049e-06
-4.427364834e-06
-4.396394351e-06
-3.221693861e-06
-3.897979046e-06
-2.085969817e-06
-3.067629501e-06
-1.150215985e-06
-2.026501682e-06
-5.021209281e-07
-9.66386325e-07
-1.489841393e-07
-1.223521286e-07
-1.025198206e-08
3.191973933e-07
2.939541669e-07
-6.791272579e-07
1.691297918e-06
-1.844134452e-06
2.873019245e-06
-3.107417796e-06
3.047029572e-06
-4.332893401e-06
2.809700399e-06
-5.466720075e-06
2.342729814e-06
-6.471708797e-06
1.682457456e-06
-7.316045109e-06
8.559604512e-07
-7.973128554e-06
-9.729078589e-08
-8.423146323e-06
-1.130098673e-06
-8.659609054e-06
-2.189751522e-06
-8.656678636e-06
-3.233626268e-06
-8.376236904e-06
-4.200415969e-06
-7.743549241e-06
-5.006616503e-06
-6.798151537e-06
-5.479525881e-06
-5.630389717e-06
-5.565581242e-06
-4.296708406e-06
-5.233556805e-06
-2.933940278e-06
-4.432635442e-06
-1.71480642e-06
-3.24785569e-06
-8.020833664e-07
-1.880544245e-06
-2.659649449e-07
-6.586298223e-07
-3.547182749e-08
8.94485327e-08
2.592104667e-07
-6.426535202e-07
2.334051903e-06
-1.766150595e-06
3.996584581e-06
-3.004903322e-06
4.285725701e-06
-4.217511563e-06
4.022171842e-06
-5.350509381e-06
3.475581389e-06
-6.370067542e-06
2.701888701e-06
-7.248505406e-06
1.734301695e-06
-7.963569768e-06
6.176963019e-07
-8.495940158e-06
-5.978077405e-07
-8.827934645e-06
-1.857855522e-06
-8.954077014e-06
-3.107618031e-06
-8.868429748e-06
-4.286258852e-06
-8.515590045e-06
-5.359746974e-06
-7.791010917e-06
-6.204552492e-06
-6.716988164e-06
-6.640328682e-06
-5.379962231e-06
-6.571683262e-06
-3.882882223e-06
-5.931344018e-06
-2.409597964e-06
-4.723220024e-06
-1.19829432e-06
-3.093837163e-06
-4.235930102e-07
-1.434335737e-06
-7.122329235e-08
-2.627684899e-07
1.885361219e-07
-5.538684663e-07
2.888031899e-06
-1.575147802e-06
5.017943168e-06
-2.737570661e-06
5.448092304e-06
-3.889529322e-06
5.174002521e-06
-4.975746796e-06
4.561677818e-06
-5.965794921e-06
3.691854683e-06
-6.83766152e-06
2.606118619e-06
-7.576807132e-06
1.356811495e-06
-8.173805926e-06
-8.341138248e-10
-8.614691182e-06
-1.4169983e-06
-8.881659621e-06
-2.840691286e-06
-8.931862744e-06
-4.236120078e-06
-8.764779815e-06
-5.526937884e-06
-8.318145219e-06
-6.651375604e-06
-7.492968842e-06
-7.465811642e-06
-6.292725881e-06
-7.772421078e-06
-4.807184985e-06
-7.417738518e-06
-3.182159778e-06
-6.349617013e-06
-1.689152169e-06
-4.588674969e-06
-6.312471551e-07
-2.493743948e-06
-1.198455498e-07
-7.74591264e-07
6.899297602e-08
-4.153294452e-07
3.303475575e-06
-1.284010856e-06
5.886709284e-06
-2.316677651e-06
6.480706055e-06
-3.3587147e-06
6.215921466e-06
-4.348382534e-06
5.55123989e-06
-5.256483548e-06
4.599898562e-06
-6.066190169e-06
3.415795856e-06
-6.770841713e-06
2.061455427e-06
-7.370873642e-06
5.991982131e-07
-7.867100427e-06
-9.207664422e-07
-8.244557216e-06
-2.463226498e-06
-8.488366265e-06
-3.992310359e-06
-8.540940708e-06
-5.474380927e-06
-8.336511595e-06
-6.855853055e-06
-7.802963962e-06
-7.999455368e-06
-6.866385679e-06
-8.709213394e-06
-5.54581731e-06
-8.738680928e-06
-3.927248349e-06
-7.96886794e-06
-2.244326581e-06
-6.272771682e-06
-8.969061746e-07
-3.842603823e-06
-1.803208413e-07
-1.491968771e-06
-1.112766987e-07
-2.391692582e-07
3.542756083e-06
-9.155930986e-07
6.563220202e-06
-1.769300642e-06
7.334363965e-06
-2.660155396e-06
7.10665594e-06
-3.516674616e-06
6.40766266e-06
-4.30912863e-06
5.392303221e-06
-5.024365047e-06
4.131017606e-06
-5.661095944e-06
2.698197249e-06
-6.226259833e-06
1.164388626e-06
-6.728569877e-06
-4.184301056e-07
-7.17137949e-06
-2.020378457e-06
-7.538206433e-06
-3.625439682e-06
-7.78764795e-06
-5.224902546e-06
-7.853549177e-06
-6.789929659e-06
-7.628284185e-06
-8.224724608e-06
-7.006840347e-06
-9.330715125e-06
-5.964062576e-06
-9.781596874e-06
-4.511513593e-06
-9.421710653e-06
-2.790079852e-06
-7.994773104e-06
-1.210943714e-06
-5.422691571e-06
-2.56220552e-07
-2.447531739e-06
-3.676252829e-07
-5.345605593e-08
3.596316959e-06
-4.882106105e-07
6.998060446e-06
-1.12819437e-06
7.97429904e-06
-1.842801211e-06
7.821141363e-06
-2.550088933e-06
7.114866885e-06
-3.217092741e-06
6.05926518e-06
-3.832882721e-06
4.746800142e-06
-4.397405881e-06
3.26273881e-06
-4.917948505e-06
1.684961385e-06
-5.40480201e-06
6.845116512e-08
-5.866254154e-06
-1.558896822e-06
-6.299725857e-06
-3.191933693e-06
-6.684612599e-06
-4.839976053e-06
-6.967349489e-06
-6.507151031e-06
-7.039000076e-06
-8.153030138e-06
-6.736535974e-06
-9.633147872e-06
-6.006290876e-06
-1.051186157e-05
-4.830343039e-06
-1.059776464e-05
-3.2310993e-06
-9.594255033e-06
-1.536840167e-06
-7.117415361e-06
-3.495553515e-07
-3.635430874e-06
-7.173810558e-07
1.157036e-07
3.480708977e-06
-3.746684374e-08
7.151312768e-06
-4.410783618e-07
8.377871031e-06
-9.585893096e-07
8.338542507e-06
-1.508932986e-06
7.665133017e-06
-2.053971667e-06
6.604268839e-06
-2.578893807e-06
5.271715777e-06
-3.0811708e-06
3.765034431e-06
-3.563666034e-06
2.167485025e-06
-4.032264471e-06
5.37074582e-07
-4.494025677e-06
-1.0971149e-06
-4.954104335e-06
-2.731833522e-06
-5.409482139e-06
-4.384575073e-06
-5.831936271e-06
-6.084671952e-06
-6.136522446e-06
-7.848414271e-06
-6.156678832e-06
-9.612953881e-06
-5.710553001e-06
-1.095794894e-05
-4.849691243e-06
-1.145862702e-05
-3.488245981e-06
-1.095578883e-05
-1.823606434e-06
-8.782254075e-06
-4.594884342e-07
-4.999881899e-06
-1.177054949e-06
2.777684477e-07
3.203024719e-06
4.054660809e-07
7.023694881e-06
2.616693016e-07
8.521647604e-06
-4.203325478e-08
8.642148602e-06
-4.399275843e-07
8.062945457e-06
-8.680986925e-07
7.032401571e-06
-1.314019426e-06
5.717626972e-06
-1.769482641e-06
4.220512274e-06
-2.229266024e-06
2.627293429e-06
-2.690616317e-06
9.984489048e-07
-3.153908156e-06
-6.338023156e-07
-3.623675253e-06
-2.262045195e-06
-4.106637812e-06
-3.901592079e-06
-4.598774292e-06
-5.592511841e-06
-5.053824653e-06
-7.393338967e-06
-5.345938958e-06
-9.320816481e-06
-5.178273303e-06
-1.112558787e-05
-4.597538726e-06
-1.203933695e-05
-3.535922123e-06
-1.20174023e-05
-2.020556522e-06
-1.029769924e-05
-5.738125474e-07
-6.446780541e-06
-1.751003265e-06
4.129387979e-07
2.790157651e-06
8.146795115e-07
6.6220326e-06
9.428571412e-07
8.393463384e-06
8.675777993e-07
8.717342057e-06
6.380554908e-07
8.292383504e-06
3.156380839e-07
7.354774017e-06
-6.039418229e-08
6.093643717e-06
-4.811174843e-07
4.641242314e-06
-9.330087829e-07
3.079201488e-06
-1.402752852e-06
1.468212744e-06
-1.880967682e-06
-1.555691155e-07
-2.365556639e-06
-1.777438699e-06
-2.863520516e-06
-3.403608354e-06
-3.384728258e-06
-5.07128099e-06
-3.918663976e-06
-6.859374414e-06
-4.387215133e-06
-8.852236478e-06
-4.520216022e-06
-1.099256468e-05
-4.13837357e-06
-1.242116587e-05
-3.380812269e-06
-1.277495487e-05
-2.096360537e-06
-1.158215522e-05
-6.749890481e-07
-7.868227357e-06
-2.42608417e-06
4.955794228e-07
2.294638806e-06
1.157589437e-06
5.960095345e-06
1.577695239e-06
7.973361605e-06
1.728998302e-06
8.565974219e-06
1.697643358e-06
8.323656639e-06
1.487816519e-06
7.564547128e-06
1.178129436e-06
6.403304814e-06
7.854932921e-07
5.033875808e-06
3.31665494e-07
3.53304227e-06
-1.595311602e-07
1.959426149e-06
-6.676458335e-07
3.525615796e-07
-1.181053909e-06
-1.26401569e-06
-1.701671375e-06
-2.882973925e-06
-2.244605173e-06
-4.528325904e-06
-2.818570468e-06
-6.285380563e-06
-3.370934348e-06
-8.299839582e-06
-3.736019779e-06
-1.062745403e-05
-3.569184208e-06
-1.258798498e-05
-3.056007625e-06
-1.328813071e-05
-2.047218646e-06
-1.259094763e-05
-7.488966406e-07
-9.166580147e-06
-3.175046328e-06
5.26360669e-07
1.768332448e-06
1.404024288e-06
5.082501544e-06
2.118480037e-06
7.258922009e-06
2.526455862e-06
8.157952705e-06
2.699459585e-06
8.150580696e-06
2.639661529e-06
7.624283753e-06
2.402381778e-06
6.640545511e-06
2.036673059e-06
5.399569553e-06
1.575218282e-06
3.994500327e-06
1.05263736e-06
2.482017606e-06
5.011017912e-07
9.04109606e-07
-5.712554522e-08
-7.057764104e-07
-6.157572403e-07
-2.324329348e-06
-1.187940261e-06
-3.956123625e-06
-1.792638872e-06
-5.680653984e-06
-2.402181323e-06
-7.690261289e-06
-2.895361759e-06
-1.013424305e-05
-2.930883293e-06
-1.255245121e-05
-2.591604572e-06
-1.362741043e-05
-1.872062763e-06
-1.33105016e-05
-7.791434919e-07
-1.02595262e-05
-3.954243367e-06
5.107051956e-07
1.257682229e-06
1.533413212e-06
4.05986746e-06
2.52036599e-06
6.272007324e-06
3.221808794e-06
7.456481336e-06
3.612112813e-06
7.760219297e-06
3.737767436e-06
7.4985661e-06
3.599553451e-06
6.778712982e-06
3.269990482e-06
5.729104662e-06
2.799017727e-06
4.465460893e-06
2.237274389e-06
3.043762393e-06
1.631078805e-06
1.510311221e-06
1.013833176e-06
-8.85233994e-08
4.014543905e-07
-1.711941163e-06
-2.124347355e-07
-3.342218304e-06
-8.496038645e-07
-5.04345789e-06
-1.492433061e-06
-7.047393088e-06
-2.02476051e-06
-9.601877714e-06
-2.23168068e-06
-1.23455236e-05
-2.048366169e-06
-1.381073157e-05
-1.586090099e-06
-1.377278975e-05
-7.508224251e-07
-1.109482157e-05
-4.705117054e-06
4.611785892e-07
7.965620523e-07
1.539175818e-06
2.981960343e-06
2.748522744e-06
5.062742154e-06
3.747184332e-06
6.457832871e-06
4.407499888e-06
7.099861707e-06
4.735851875e-06
7.170150598e-06
4.741937419e-06
6.772569626e-06
4.462834054e-06
6.008167383e-06
3.984773508e-06
4.943497705e-06
3.379406475e-06
3.649117784e-06
2.711041944e-06
2.178673358e-06
2.024685744e-06
5.978339864e-07
1.346257416e-06
-1.033508869e-06
6.777866434e-07
-2.673735399e-06
-1.005388469e-09
-4.364640415e-06
-6.682616686e-07
-6.380095423e-06
-1.183495664e-06
-9.086600463e-06
-1.451494916e-06
-1.20775126e-05
-1.39841942e-06
-1.38638093e-05
-1.189792311e-06
-1.398142334e-05
-6.49765849e-07
-1.163487283e-05
-5.354935915e-06
4.022184228e-07
3.943936464e-07
1.446625751e-06
1.937671576e-06
2.787557796e-06
3.721931706e-06
4.058252768e-06
5.187223712e-06
5.025052635e-06
6.133084647e-06
5.589316872e-06
6.60585791e-06
5.762275617e-06
6.599552829e-06
5.586574282e-06
6.183812354e-06
5.095692416e-06
5.434338551e-06
4.441220475e-06
4.303565446e-06
3.707829469e-06
2.912051262e-06
2.948444204e-06
1.357212433e-06
2.198998522e-06
-2.840651302e-07
1.471012065e-06
-1.945739834e-06
7.507952189e-07
-3.644398241e-06
7.900437473e-08
-5.708260855e-06
-3.79934172e-07
-8.62761092e-06
-6.157607331e-07
-1.184166042e-05
-6.72297336e-07
-1.38072728e-05
-6.801939615e-07
-1.397353266e-05
-4.519190702e-07
-1.186316963e-05
-5.806908178e-06
3.791397796e-07
1.525153515e-08
1.322042535e-06
9.948623816e-07
2.682518046e-06
2.36160562e-06
4.149398073e-06
3.720492578e-06
5.415579346e-06
4.867006127e-06
6.246382324e-06
5.77511006e-06
6.586102729e-06
6.259842751e-06
6.529039039e-06
6.240851257e-06
6.09524824e-06
5.868088949e-06
5.38799003e-06
5.010787808e-06
4.584864362e-06
3.71515413e-06
3.747463467e-06
2.194599946e-06
2.925470707e-06
5.379204686e-07
2.138999529e-06
-1.159261839e-06
1.385938212e-06
-2.89130951e-06
7.52228061e-07
-5.07450283e-06
4.273095366e-07
-8.302635003e-06
2.997889767e-07
-1.171411835e-05
1.504011168e-07
-1.3657896e-05
-7.698916857e-08
-1.374615181e-05
-1.859081123e-07
-1.175427191e-05
-5.99286719e-06
4.487059429e-07
-4.335955018e-07
1.231080818e-06
2.124270625e-07
2.5717339e-06
1.020970605e-06
4.158698591e-06
2.133612586e-06
5.675226427e-06
3.350625145e-06
6.683347676e-06
4.767114845e-06
7.190170597e-06
5.753090239e-06
7.158460154e-06
6.272592784e-06
6.806094218e-06
6.220458791e-06
6.112411535e-06
5.704453726e-06
5.251122038e-06
4.57642232e-06
4.349083494e-06
3.096623756e-06
3.468082344e-06
1.418915921e-06
2.63632734e-06
-3.274990834e-07
1.876443751e-06
-2.131394862e-06
1.372146493e-06
-4.570150634e-06
1.296051322e-06
-8.226481888e-06
1.320487826e-06
-1.173854155e-05
1.097914941e-06
-1.343534217e-05
6.637999498e-07
-1.331205248e-05
1.357418511e-07
-1.122623491e-05
-5.857172297e-06
7.095609219e-07
-1.143506302e-06
1.180457319e-06
-2.587903185e-07
2.52953406e-06
-3.283912117e-07
4.181586319e-06
4.813174112e-07
5.959415867e-06
1.572607283e-06
7.014682118e-06
3.711778636e-06
7.659998246e-06
5.107827629e-06
7.661299198e-06
6.27134334e-06
7.265396777e-06
6.61638316e-06
6.581294646e-06
6.388562779e-06
5.663295135e-06
5.49441786e-06
4.697811033e-06
4.06209988e-06
3.767460022e-06
2.349265068e-06
2.907413173e-06
5.32561539e-07
2.196876857e-06
-1.42082219e-06
1.995837437e-06
-4.369047739e-06
2.30299199e-06
-8.533581633e-06
2.491938411e-06
-1.192747267e-05
2.198958504e-06
-1.314238165e-05
1.538804733e-06
-1.265191413e-05
5.530083401e-07
-1.024045676e-05
-5.304206931e-06
1.022036296e-06
-2.165947181e-06
1.658656076e-06
-8.959481189e-07
2.728340225e-06
-1.398487308e-06
4.000013116e-06
-7.908263522e-07
5.47562536e-06
9.647598818e-08
6.858802942e-06
2.328140624e-06
7.470977533e-06
4.495333045e-06
7.554374755e-06