/*--------------------------------*- C++ -*----------------------------------*\
  =========                 |
  \\      /  F ield         | OpenFOAM: The Open Source CFD Toolbox
   \\    /   O peration     | Website:  https://openfoam.org
    \\  /    A nd           | Version:  9
     \\/     M anipulation  |
\*---------------------------------------------------------------------------*/
FoamFile
{
    format      ascii;
    class       volScalarField;
    location    "10";
    object      T.gas;
}
// * * * * * * * * * * * * * * * * * * * * * * * * * * * * * * * * * * * * * //

dimensions      [0 0 0 1 0 0 0];

internalField   nonuniform List<scalar> 
2215
(
823.4593754
823.4554666
823.430636
823.3656207
823.2500124
823.090842
822.9124113
822.7527524
822.6486647
822.6187113
822.6541897
822.7377844
822.8710633
822.8979578
822.9259209
822.9520882
822.9703699
822.9809451
822.9858893
822.9872054
822.986224
822.9842648
823.4623153
823.4592242
823.4324125
823.3600972
823.2305096
823.0527688
822.8538904
822.6764405
822.5620299
822.5308937
822.5702543
822.6437658
822.7136447
822.7494965
822.7956143
822.8488121
822.8944173
822.9256029
822.9430942
822.9500118
822.9498898
822.9468594
823.4620592
823.4572505
823.424932
823.3438782
823.2036811
823.0123021
822.7961064
822.5985808
822.4646625
822.4182289
822.447226
822.5179343
822.5825011
822.6304005
822.6860131
822.7516121
822.8134586
822.8603679
822.8892996
822.9025398
822.9047428
822.9019222
823.4579592
823.4510222
823.4145135
823.3268294
823.1768492
822.9717316
822.7382282
822.5209906
822.3670554
822.3035304
822.3224023
822.3885745
822.4618006
822.5249742
822.5902964
822.6628292
822.7333331
822.7901744
822.8277017
822.8465098
822.8513082
822.8491459
823.4516138
823.442948
823.4028351
823.3087271
823.1490088
822.9303366
822.6801213
822.4442284
822.2715919
822.1917797
822.2006999
822.2656661
822.3482463
822.4264151
822.5024076
822.5805743
822.6556788
822.7179259
822.7607908
822.7835072
822.7903346
822.7887609
823.4440152
823.433875
823.390404
823.2900514
823.1208056
822.8887122
822.6223849
822.3687706
822.1788865
822.0844939
822.0844684
822.148973
822.2397478
822.3313542
822.4181794
822.5019668
822.579841
822.6444882
822.6898398
822.7145364
822.7223797
822.7210153
823.4356021
823.4241365
823.3775019
823.2712254
823.0930157
822.8483046
822.5660974
822.2954353
822.0891098
821.9812446
821.9729705
822.0365856
822.1341855
822.2374404
822.3345659
822.4240917
822.5040178
822.5692595
822.6149272
822.639795
822.6475063
822.6458244
823.4265189
823.4138697
823.3643529
823.2527361
823.0665312
822.8110574
822.5124118
822.2253589
822.0028332
821.8816898
821.8651193
821.9268799
822.0298954
822.1424798
822.2488627
822.3440291
822.4257492
822.4905779
822.5350603
822.5586038
822.5651137
822.5625728
823.4168032
823.4031705
823.351215
823.2351653
823.0420538
822.7759098
822.4657598
822.1603681
821.9209256
821.7860193
821.7598882
821.8177741
821.9235789
822.0436853
822.1581108
822.2585932
822.3420123
822.4059357
822.4482841
822.4694283
822.4739038
822.470067
823.4064883
823.392158
823.3384186
823.2193082
823.0213612
822.7471605
822.4257978
822.108799
821.8498209
821.6966315
821.6573482
821.7079495
821.813402
821.9383812
822.0589566
822.164116
822.2491725
822.3120722
822.3518048
822.3699983
822.3719875
822.3666452
823.3956372
823.3809675
823.3262808
823.2058964
823.0059202
822.7282123
822.3973436
822.0632943
821.7876215
821.6164105
821.5606028
821.5974848
821.6973027
821.8230015
821.9474685
822.0563599
822.142976
822.2050383
822.2422542
822.2575844
822.2571536
822.2504615
823.3843367
823.3697251
823.3150699
823.1955142
822.997884
822.7205632
822.3860876
822.041379
821.7438075
821.5456257
821.4684794
821.4861927
821.5738861
821.6947075
821.8198876
821.9309515
822.0188926
822.0805804
822.1160845
822.129421
822.1273549
822.1199619
823.3726721
823.3585237
823.3050367
823.1891196
822.9953943
822.7204578
822.3865802
822.037397
821.72678
821.5002038
821.3907503
821.3806963
821.4460199
821.5541632
821.674406
821.7846569
821.8731215
821.9350388
821.9703481
821.9833887
821.9813849
821.9745411
823.3607006
823.3473909
823.2962703
823.186754
823.0018651
822.7389458
822.4137433
822.0639945
821.7399553
821.4881006
821.3408
821.2932287
821.3241251
821.4079405
821.5138429
821.6177653
821.7045626
821.7669502
821.8039586
821.8191125
821.8197805
821.8153519
823.3484381
823.3363135
823.2890108
823.1883688
823.0191917
822.7757881
822.4693713
822.1301225
821.8010601
821.5253843
821.3343258
821.2419749
821.2264692
821.2708107
821.3495036
821.4378635
821.5180066
821.5795253
821.6195095
821.6394637
821.6458695
821.6461741
823.3358251
823.3251305
823.2836058
823.1953257
823.0467027
822.8314283
822.5555802
822.2406759
821.9201824
821.6307744
821.4024912
821.2525186
821.1823198
821.1718478
821.2064358
821.2647602
821.3283956
821.3840248
821.4256992
821.4519689
821.4668083
821.4741811
823.322738
823.3138509
823.2792754
823.2061059
823.0834874
822.9050376
822.6721712
822.3976655
822.1040978
821.8186092
821.566995
821.3679527
821.2297953
821.1531443
821.1263308
821.1342902
821.1647359
821.2028471
821.239782
821.270335
821.2943158
821.3103794
823.3091424
823.3023655
823.2756084
823.2197007
823.1272683
822.9927768
822.8139347
822.5956923
822.3498122
822.0921629
821.8404615
821.6107734
821.4152687
821.2624612
821.1570555
821.0964561
821.070926
821.0709405
821.0885741
821.1150677
821.1449099
821.1695398
823.2950418
823.2905289
823.2718957
823.2341011
823.1735302
823.0864156
822.9681152
822.8175583
822.6373603
822.4325538
822.210831
821.9813383
821.7531979
821.5381378
821.3487898
821.1976055
821.0938663
821.0322147
821.0070338
821.012594
821.0391164
821.0693566
823.280523
823.2782371
823.2670943
823.2455441
823.2150311
823.1723516
823.1127662
823.0316584
822.9253786
822.7905907
822.6260041
822.4330752
822.2116236
821.9683972
821.7181672
821.4786618
821.2720508
821.1194408
821.0284294
820.9920775
820.9995656
821.0285994
823.2658035
823.2655567
823.2604837
823.2504036
823.2399154
823.228066
823.2110483
823.1849366
823.1455804
823.0859498
822.9969101
822.8698395
822.6979624
822.4749348
822.2121178
821.9194471
821.6269774
821.3681202
821.1758793
821.069848
821.0417018
821.0618509
823.2510798
823.2524822
823.251787
823.2491503
823.2481773
823.2484973
823.2480596
823.2444701
823.2370303
823.2215497
823.1927345
823.1431819
823.0614553
822.9271936
822.7147292
822.4313106
822.1042016
821.7673712
821.4747532
821.2740663
821.1845346
821.1827502
823.236295
823.2386503
823.2393557
823.2381463
823.2379879
823.2392884
823.2403164
823.2404175
823.239439
823.2369668
823.2324698
823.2227327
823.1975871
823.1515659
823.0563592
822.8812443
822.5983772
822.2474633
821.8884583
821.5989993
821.4371891
821.3990466
823.2216109
823.2237006
823.2226986
823.2156351
823.2056824
823.1945382
823.1814143
823.1697758
823.163951
823.1618511
823.1644269
823.1735769
823.1832213
823.1862789
823.1682447
823.1077405
822.964744
822.7012424
822.3464322
822.003744
821.7746996
821.6933225
823.2072936
823.208472
823.2035308
823.1877597
823.1656422
823.142214
823.1194789
823.1008845
823.088876
823.0830426
823.0814189
823.0861921
823.0995731
823.120736
823.1413422
823.1482019
823.1120237
822.9987943
822.7513229
822.4219407
822.153932
822.0337525
823.1937773
823.1938138
823.1846476
823.1610519
823.1301414
823.099386
823.0742693
823.0571089
823.0456184
823.0390359
823.0362671
823.0359722
823.040232
823.0505722
823.0693353
823.098932
823.1161827
823.09782
823.0011133
822.7727348
822.5147824
822.3741746
823.1814046
823.1804258
823.1681264
823.1395898
823.1021533
823.0696624
823.0482049
823.0342785
823.0257035
823.0207447
823.0177801
823.016443
823.0164642
823.0193431
823.0255345
823.0407548
823.0663829
823.0882439
823.0792644
822.9872123
822.7988721
822.6657639
823.1702869
823.1686571
823.1546785
823.1231721
823.0826895
823.0526032
823.0346108
823.0232956
823.0168767
823.0135804
823.0115328
823.0094652
823.008238
823.0079558
823.009584
823.0148646
823.0251643
823.0472053
823.0692467
823.0581319
822.9719857
822.8733445
823.160472
823.1587018
823.1446205
823.1119151
823.0711833
823.0438544
823.0271139
823.018024
823.0137671
823.0119002
823.0105235
823.0087922
823.0066774
823.0050417
823.0043943
823.0050948
823.0092244
823.017762
823.037388
823.0564555
823.0386379
822.9886948
823.1518643
823.1503512
823.1370838
823.10489
823.0658625
823.0393194
823.0238145
823.0166616
823.0142269
823.0139176
823.0140176
823.0133829
823.0108766
823.0072389
823.0038719
823.0026059
823.0030021
823.0068627
823.0154034
823.0326321
823.044762
823.0313801
823.1444735
823.1432584
823.1312018
823.1028105
823.0660086
823.0393782
823.0239444
823.0172637
823.0157202
823.016736
823.0184685
823.01908
823.0179553
823.0145209
823.0090029
823.0038321
823.0018057
823.0023314
823.0066572
823.0162547
823.0303306
823.0353986
823.138183
823.1372946
823.1281522
823.1030376
823.0682831
823.0413466
823.0255145
823.0187687
823.0173853
823.0189488
823.021724
823.0234457
823.0236345
823.0211547
823.0160607
823.009041
823.0034369
823.0015727
823.0026662
823.0088937
823.0186179
823.0268869
823.1327143
823.1319476
823.1251608
823.1044853
823.0734053
823.0462085
823.0292104
823.0211039
823.0190139
823.0204274
823.0235188
823.0265228
823.0279522
823.026773
823.0221721
823.0148209
823.0067571
823.0025513
823.0017416
823.0046809
823.0129244
823.0191681
823.1279464
823.127524
823.1229085
823.1074283
823.0806713
823.0541471
823.0357937
823.0253935
823.021483
823.0218777
823.0246878
823.0282735
823.0308678
823.0313448
823.0276124
823.0201928
823.0109387
823.0040134
823.0017077
823.0029327
823.0091619
823.0142768
823.1232064
823.1235486
823.1208976
823.1105412
823.0888978
823.0644388
823.0444703
823.0325005
823.02602
823.024596
823.0261996
823.0296024
823.033128
823.0347019
823.0322914
823.0251
823.0150856
823.0061853
823.0020663
823.00203
823.0073205
823.0115822
823.1172827
823.1189073
823.1181585
823.1123006
823.0971366
823.0760152
823.0560929
823.0420697
823.033246
823.029371
823.0294484
823.0316839
823.0352995
823.0376592
823.0362298
823.0292964
823.0186242
823.0088853
823.002799
823.0012858
823.0058083
823.0101961
823.1083329
823.1117299
823.1128986
823.1111135
823.1035897
823.0879491
823.0700858
823.0540138
823.0434331
823.0369801
823.0348422
823.0356784
823.0383401
823.0406853
823.039578
823.0327631
823.0212044
823.0107555
823.0036164
823.0009173
823.0042522
823.0091922
823.0953661
823.0989647
823.1044583
823.1059508
823.1029996
823.0953429
823.0829245
823.0689232
823.0558316
823.0473642
823.0425981
823.0416883
823.0427377
823.0441143
823.0426276
823.0355786
823.0225028
823.0116389
823.0043167
823.000751
823.0031741
823.0083528
823.080314
823.0818999
823.0872778
823.0944624
823.096476
823.0938654
823.0874779
823.079104
823.0690645
823.0591616
823.0525591
823.0489567
823.0483295
823.0480328
823.0454768
823.0370609
823.0228812
823.0119388
823.0049546
823.0007132
823.0021265
823.0073735
823.0658903
823.0658802
823.0669639
823.0716415
823.0799573
823.0842981
823.0836004
823.0797844
823.0739441
823.0673259
823.0606887
823.0565081
823.0538416
823.0518956
823.047431
823.0373848
823.021916
823.0114078
823.0050627
823.0007772
823.0012422
823.0062426
823.0477751
823.0475628
823.0458543
823.0481123
823.0532823
823.0622247
823.0702277
823.0730871
823.0719508
823.0685563
823.0641627
823.0602884
823.0575152
823.0542333
823.0480157
823.0355334
823.0186042
823.0089853
823.0043357
823.0006898
823.0007672
823.0050964
823.019943
823.0131433
823.0040551
823.0051594
823.0095733
823.0189296
823.0357775
823.0528863
823.0611465
823.0640389
823.0630329
823.0606596
823.0582299
823.0543382
823.0464944
823.0306105
823.0133707
823.0057254
823.0030052
823.0004431
823.0004032
823.0042565
822.9964018
822.9934171
822.9925697
822.9925973
822.9926627
822.9929143
822.9939485
822.9985761
823.0173928
823.0462365
823.0556216
823.0576869
823.0566483
823.0522408
823.0415136
823.021617
823.0067257
823.0022185
823.0015439
823.0001571
823.0001539
823.0036503
822.9929224
822.992344
822.9923512
822.992408
822.9924544
822.9925
822.9925787
822.9927744
822.9937553
823.0005204
823.0282205
823.0468942
823.0509024
823.0460061
823.0305658
823.009169
823.0004171
822.9995667
823.0003562
822.9998757
822.9999575
823.0032945
822.9925339
822.9922711
822.9923484
822.992531
822.9928311
822.992804
822.99269
822.9926933
822.9927228
822.9929988
822.995749
823.0124769
823.0365944
823.0326436
823.0140106
822.9990019
822.9966504
822.9983185
822.9998388
822.9992308
822.999574
823.0030966
822.9921392
822.9922224
822.9926054
822.9930835
822.9937846
822.9937288
822.9933931
822.9929122
822.9927631
822.9927698
822.9929558
822.9949654
823.0066689
823.0093082
822.9988467
822.9945916
822.9952156
822.9980716
822.998855
822.9976952
822.9985732
823.0025459
822.9920246
822.9923266
822.9933512
822.9938414
822.9945993
822.994606
822.994434
822.9938056
822.9930121
822.9928148
822.9928219
822.9930652
822.9953044
822.9957919
822.9934586
822.9934063
822.9950704
822.9977784
822.9975798
822.9963327
822.9977223
823.0013961
822.9919854
822.9927057
822.9939183
822.9945819
822.9952256
822.9952535
822.9951085
822.9947114
822.9936371
822.9929677
822.9928467
822.9928729
822.9932968
822.9929736
822.9929854
822.9936353
822.9951626
822.9965917
822.9961843
822.9946251
822.9959868
822.9988339
822.9919767
822.9932387
822.9943782
822.9953577
822.9960609
822.9961473
822.995965
822.9955352
822.994561
822.9933457
822.9929219
822.9928817
822.9929239
822.9928793
822.9932705
822.9931355
822.99319
822.9933347
822.9936441
822.9934078
822.9937969
822.9939471
822.9919655
822.9935706
822.9948584
822.995857
822.9964433
822.9966996
822.9965633
822.9961902
822.9954075
822.9939799
822.9931677
822.992927
822.9929151
822.9929285
822.9930254
822.99306
822.9930768
822.993094
822.9931165
822.99315
822.9932417
822.9933753
822.9919442
822.9938764
822.9950875
822.996117
822.9967824
822.9971543
822.9970828
822.9967883
822.9961614
822.9948173
822.9935955
822.9930987
822.9929679
822.9929865
822.9930638
822.9930802
822.993108
822.9931029
822.9931174
822.9931521
822.9932452
822.9933753
822.9919251
822.9940209
822.9953109
822.9963844
822.9970514
822.9974582
822.9974356
822.9972614
822.9968197
822.9957066
822.9943249
822.9934457
822.9931399
822.9931
822.9931246
822.9932022
822.9933785
822.9932913
822.9932135
822.9932432
822.993298
822.9933779
822.9919201
822.9942151
822.9954299
822.9965186
822.9972412
822.9976121
822.9976422
822.9975548
822.997279
822.9965931
822.9950766
822.9939326
822.9934557
822.9932805
822.9932727
822.993339
822.9934556
822.9933482
822.9933007
822.9933074
822.9933339
822.9933908
822.9919182
822.9943296
822.995553
822.9966718
822.9973995
822.9977085
822.9978265
822.9977744
822.9975995
822.9971728
822.9959905
822.9946391
822.993773
822.9933946
822.9933182
822.993374
822.9934558
822.9933669
822.9933399
822.993338
822.9933617
822.9934335
822.9919227
822.9944077
822.9956059
822.9967451
822.9974932
822.9978049
822.9979594
822.9979329
822.9978215
822.9975434
822.996765
822.9955422
822.9944619
822.9937039
822.9934397
822.9934184
822.9934593
822.9933802
822.9933607
822.9933625
822.9934141
822.9934842
822.9919393
822.9944646
822.9956419
822.9968129
822.9975754
822.9978758
822.9980227
822.9980156
822.9979499
822.9977555
822.9972224
822.996054
822.9949316
822.9939932
822.993666
822.9935094
822.9934714
822.9934053
822.9933966
822.9934106
822.9934794
822.9935423
822.9919694
822.9945014
822.9956539
822.9968487
822.9976056
822.9979058
822.9980468
822.9980511
822.9980147
822.9978798
822.9974859
822.9964867
822.9952781
822.9943888
822.9939451
822.993567
822.9934854
822.9934495
822.9934508
822.9934711
822.9935399
822.9936368
822.9920047
822.9945139
822.9956436
822.9968575
822.9976159
822.9979147
822.9980518
822.9981
822.9980212
822.9978783
822.9975016
822.9966065
822.9955182
822.9946839
822.9940007
822.993559
822.9935015
822.9934878
822.9934943
822.9935214
822.993623
822.993752
822.9920361
822.9945181
822.9955863
822.9968078
822.9975863
822.9978829
822.9980164
822.9980623
822.9979927
822.9978342
822.9974429
822.9965532
822.9955035
822.9946836
822.9939474
822.9935177
822.9935284
822.9935141
822.9935258
822.9935892
822.9937256
822.9939444
822.9920439
822.9944978
822.9955106
822.9967094
822.9975134
822.9978084
822.9979336
822.997975
822.9979111
822.9977135
822.9972801
822.9963883
822.9954033
822.9945725
822.99375
822.9935128
822.9935493
822.9935329
822.9935656
822.9936714
822.9939227
822.9943494
822.9920479
822.9944653
822.995391
822.9965309
822.9973757
822.9976802
822.9977914
822.9978158
822.9977019
822.9974318
822.9969269
822.996054
822.9951564
822.9941732
822.9936109
822.9935373
822.9935582
822.9935508
822.9936285
822.9938367
822.9943752
822.9952433
822.9920199
822.9944312
822.9952628
822.9963082
822.9971702
822.9974883
822.9976042
822.9976176
822.9973993
822.9970421
822.9964527
822.9955572
822.9945139
822.9938033
822.9935964
822.9935876
822.99357
822.9935877
822.9937652
822.9942423
822.9955132
822.9968618
822.991971
822.9943893
822.9950939
822.9960146
822.9968685
822.997161
822.9972588
822.9972594
822.9969199
822.9964325
822.9957105
822.9946988
822.9939914
822.9936859
822.9936098
822.9936025
822.9935921
822.993687
822.9941264
822.9953492
822.9975922
822.9985721
822.9919004
822.9943462
822.9949459
822.9956638
822.9965362
822.9967992
822.9968545
822.9967126
822.9962445
822.9956714
822.994885
822.994144
822.9938068
822.993671
822.9936284
822.9936195
822.9936588
822.9940011
822.9951692
822.9977939
822.9990702
822.9994384
822.9918058
822.9943172
822.9948026
822.9952368
822.9960877
822.9964133
822.9964667
822.9962428
822.9956622
822.9950845
822.9943882
822.9939427
822.9937567
822.993678
822.9936546
822.9936704
822.9939278
822.9949997
822.9977487
822.9991511
822.9995631
822.9996673
822.991676
822.99428
822.9947271
822.9949189
822.9954753
822.9958807
822.9959616
822.9957875
822.9951875
822.9946565
822.9940947
822.9938445
822.9937403
822.9937041
822.9937127
822.9939235
822.994911
822.9976528
822.9990886
822.9995014
822.9996098
822.9996842
822.9915968
822.9942604
822.9946667
822.9947105
822.9948965
822.9952226
822.9953058
822.9952107
822.9946729
822.9942447
822.9939193
822.9937997
822.9937618
822.9937691
822.9939885
822.9949471
822.9976168
822.9989863
822.999368
822.9994453
822.9995354
822.9996306
822.9915174
822.9942364
822.9946449
822.9946114
822.9945226
822.9946504
822.9946866
822.994564
822.99423
822.9939675
822.9938519
822.993819
822.9938437
822.994108
822.9951405
822.9976855
822.9989114
822.999251
822.999309
822.999377
822.9994873
822.9995889
822.9914858
822.9942234
822.9946357
822.9946064
822.9942965
822.9942629
822.9942461
822.994126
822.9939734
822.9938922
822.9938704
822.9939297
822.9942791
822.9955085
822.9978399
822.9988647
822.9991482
822.9991892
822.9992083
822.999315
822.9994434
822.9995518
822.9914571
822.994215
822.994628
822.9946502
822.9942184
822.9940556
822.994004
822.9939423
822.9939118
822.993909
822.9939991
822.9944332
822.9958339
822.9979491
822.9988225
822.9990559
822.9990792
822.9990576
822.9991178
822.9992509
822.9994027
822.9995176
822.9914656
822.9942127
822.9946182
822.9946694
822.9942318
822.9939779
822.9939179
822.9939008
822.9939171
822.9940133
822.9944468
822.9958429
822.9979196
822.9987661
822.9989906
822.9990107
822.9989663
822.9989606
822.9990325
822.9991887
822.9993624
822.9994844
822.9914591
822.9942116
822.9946136
822.9946719
822.9942995
822.9939707
822.9939022
822.9938984
822.9939603
822.9943069
822.995454
822.9976433
822.9986657
822.9989552
822.9989903
822.9989174
822.9988915
822.998888
822.9989585
822.9991283
822.9993223
822.9994519
822.9914553
822.9942131
822.9946079
822.9946687
822.9944086
822.9939799
822.9939037
822.9939079
822.9940697
822.9947542
822.9965432
822.9983771
822.9989055
822.9990045
822.9989747
822.9988709
822.9988296
822.9988207
822.9988872
822.9990692
822.9992819
822.9994199
822.9914633
822.9942137
822.994601
822.994669
822.9944934
822.9940097
822.9939138
822.9939363
822.9941914
822.9951473
822.9973104
822.9986885
822.9990055
822.9990481
822.9989697
822.9988432
822.9987704
822.9987523
822.9988157
822.9990096
822.9992408
822.9993884
822.9914871
822.9942145
822.9945911
822.9946679
822.9945292
822.9940695
822.9939403
822.9939724
822.9942931
822.9954612
822.9977594
822.9988434
822.9990745
822.9990994
822.9989893
822.9988274
822.9987155
822.9986848
822.998742
822.9989481
822.9991988
822.9993576
822.9915065
822.9942109
822.9945765
822.9946619
822.9945288
822.9941263
822.9939748
822.9940123
822.9943927
822.9957095
822.9979921
822.9989331
822.9991304
822.9991473
822.9990148
822.9988222
822.9986668
822.9986192
822.9986674
822.9988838
822.9991558
822.9993273
822.9914987
822.9942038
822.9945565
822.9946415
822.9945014
822.9941626
822.994008
822.9940531
822.994482
822.9958639
822.9981102
822.9989885
822.9991724
822.9991835
822.999037
822.9988232
822.9986265
822.9985576
822.9985936
822.9988173
822.9991117
822.9992975
822.9914628
822.9941996
822.9945333
822.9946031
822.9944213
822.9941751
822.9940338
822.9940841
822.9945298
822.9959042
822.9981589
822.9990215
822.9992021
822.9992091
822.9990568
822.9988305
822.998595
822.9984995
822.9985214
822.9987493
822.9990663
822.9992681
822.9914456
822.9941911
822.994509
822.99457
822.9943389
822.9941739
822.9940485
822.9941013
822.9945406
822.9958978
822.9981759
822.9990394
822.9992226
822.9992262
822.9990723
822.998839
822.9985725
822.9984442
822.9984511
822.9986809
822.99902
822.9992389
822.9914529
822.9941843
822.9944819
822.9945392
822.9942781
822.9941588
822.9940531
822.9941078
822.9945386
822.9958837
822.9981845
822.9990469
822.9992382
822.9992363
822.999083
822.9988442
822.9985586
822.9983902
822.9983826
822.9986124
822.9989731
822.9992099
822.9914463
822.994175
822.994452
822.99451
822.9942346
822.994118
822.9940526
822.9941089
822.9945335
822.9958891
822.9981876
822.9990459
822.9992508
822.9992404
822.9990896
822.9988472
822.998545
822.9983387
822.9983157
822.9985437
822.9989259
822.9991811
822.9914742
822.9941691
822.9944188
822.9944806
822.9942085
822.9940839
822.9940469
822.9941099
822.9945364
822.9959368
822.9981878
822.9990419
822.9992591
822.9992399
822.9990928
822.9988482
822.9985302
822.9982899
822.9982504
822.9984749
822.9988788
822.9991527
822.9915512
822.9941686
822.9943844
822.9944488
822.994199
822.9940638
822.9940396
822.9941128
822.9945524
822.9960653
822.9981909
822.9990385
822.9992626
822.999235
822.9990922
822.9988437
822.9985101
822.9982408
822.9981866
822.9984058
822.9988319
822.999125
822.9918321
822.9941701
822.9943467
822.9944132
822.9941976
822.9940567
822.994039
822.9941217
822.9945995
822.996203
822.9982006
822.9990391
822.9992627
822.9992258
822.9990872
822.998833
822.9984799
822.9981877
822.9981225
822.9983362
822.998785
822.9990985
822.9919231
822.9941765
822.9943056
822.9943702
822.9941981
822.9940574
822.9940427
822.9941477
822.9947246
822.9963313
822.9982216
822.9990466
822.99926
822.999212
822.9990768
822.9988164
822.9984383
822.9981258
822.9980555
822.9982652
822.9987377
822.9990736
822.9918534
822.9941858
822.9942646
822.9943227
822.9941966
822.9940676
822.9940608
822.9942189
822.9949101
822.9964328
822.998249
822.9990655
822.9992484
822.9991914
822.9990587
822.998796
822.9983875
822.9980531
822.9979821
822.9981914
822.9986899
822.9990508
822.9923321
822.9941955
822.9942268
822.9942727
822.9941855
822.9941024
822.9941064
822.99432
822.9950604
822.9964932
822.9982908
822.9990838
822.9992183
822.9991595
822.9990291
822.9987734
822.9983357
822.9979723
822.9979012
822.9981139
822.9986421
822.9990302
822.9923275
822.9942272
822.9941999
822.9942311
822.9941746
822.9941426
822.9941694
822.9944427
822.9952054
822.9965954
822.9983601
822.9990954
822.9991745
822.9991109
822.9989812
822.9987454
822.9982921
822.9978921
822.997815
822.9980342
822.9985971
822.9990117
822.9922569
822.9942196
822.9941786
822.9941991
822.9941772
822.99417
822.9942339
822.9945524
822.9953224
822.9967602
822.99846
822.9990965
822.9991166
822.9990353
822.9989066
822.9986993
822.9982642
822.9978213
822.9977307
822.9979554
822.998558
822.998998
822.9923912
822.994282
822.9941731
822.994179
822.9941773
822.9941939
822.994294
822.9946375
822.9953986
822.996884
822.9985713
822.9990806
822.9990276
822.9989148
822.9987918
822.9986195
822.9982439
822.9977643
822.9976554
822.9978843
822.9985278
822.9989915
822.9917953
822.9942898
822.9941659
822.9941702
822.9941782
822.9942116
822.99434
822.9947094
822.9955598
822.9970872
822.9986586
822.9990054
822.9988784
822.9987296
822.9986195
822.9984956
822.9982091
822.9977164
822.9975939
822.9978274
822.9985099
822.9989897
822.9923039
822.9943759
822.9941718
822.9941705
822.9941811
822.9942301
822.994388
822.9948244
822.9957605
822.9975059
822.9986998
822.9988295
822.9986154
822.9984258
822.9983737
822.9983217
822.9981377
822.9976698
822.9975448
822.9977908
822.998503
822.9989968
822.9925579
822.9944508
822.9941943
822.9941795
822.9941917
822.9942679
822.9944939
822.9950151
822.9960124
822.9979026
822.9986806
822.9985815
822.9981542
822.9979719
822.9980457
822.9981055
822.9980076
822.9976153
822.9975014
822.9977738
822.9985106
822.9990148
822.9932717
822.9946142
822.9942735
822.9942174
822.9942237
822.9943488
822.9946352
822.9952488
822.9966145
822.9981083
822.9985263
822.9981289
822.997541
822.9974179
822.9976457
822.9978942
822.9978434
822.9975312
822.9974615
822.9977707
822.998545
822.9990475
822.9934025
822.9946956
822.9944486
822.9942952
822.9942919
822.9944753
822.9948662
822.9957118
822.9973343
822.9981352
822.998119
822.997422
822.9968892
822.9968881
822.9973562
822.9977081
822.9976719
822.9974294
822.997443
822.9978263
822.9986124
822.9990978
822.9946532
822.9948952
822.9946768
822.9943627
822.9944452
822.9947588
822.9954179
822.9967354
822.9975813
822.9979624
822.9974523
822.9965786
822.9963396
822.9965484
822.9972798
822.9975641
822.9974942
822.9973598
822.9974457
822.9979506
822.9987148
822.9991684
822.9956368
822.9949018
822.9946717
822.9946188
822.9949754
822.9956672
822.9965347
822.9971484
822.9974782
822.9971949
822.9963376
822.9959963
822.9960742
822.9966972
822.9973378
822.9974382
822.9973563
822.9973405
822.9975392
822.9981719
822.9988617
822.9992604
822.9957453
822.9956135
822.995444
822.9955992
822.996143
822.996393
822.9967068
822.9968946
822.9966209
822.9960604
822.9958803
822.9959707
822.9965229
822.9971443
822.9973311
822.997319
822.9973033
822.9974105
822.9978351
822.9984727
822.9990443
822.9993699
822.9958951
822.9958851
822.995913
822.9960334
822.996168
822.9962218
822.9962425
822.9961277
822.9960471
822.9960645
822.9963046
822.9967817
822.9971043
822.9972112
822.9972366
822.9972765
822.9974336
822.9978201
822.9982883
822.9987946
822.9992361
822.9994803
822.9961246
822.9960928
822.9960943
822.9961332
822.9962115
822.9962653
822.9963649
822.9964494
822.9966161
822.996814
822.9969763
822.9970766
822.9971474
822.9972495
822.9973933
822.9975882
822.9978543
822.998193
822.9985888
822.9990083
822.9993609
822.9995528
822.9893746
822.9832482
822.985383
822.9964012
822.9960804
822.99592
822.9964598
822.9960528
822.9958332
822.9966763
822.9962725
822.9959518
822.9967652
822.9965185
822.9962944
)
;

boundaryField
{
    inlet
    {
        type            fixedValue;
        value           uniform 823;
    }
    frontandback
    {
        type            empty;
    }
    walls
    {
        type            zeroGradient;
    }
    outlet
    {
        type            inletOutlet;
        phi             phi.gas;
        inletValue      uniform 823;
        value           nonuniform List<scalar> 
22
(
823.4593323
823.4554359
823.4306303
823.3656475
823.2500711
823.0909232
822.9124974
822.7528251
822.6487135
822.6187383
822.6542018
822.7377819
823
823
823
823
823
823
823
823
823
823
)
;
    }
}


// ************************************************************************* //
