/*--------------------------------*- C++ -*----------------------------------*\
  =========                 |
  \\      /  F ield         | OpenFOAM: The Open Source CFD Toolbox
   \\    /   O peration     | Website:  https://openfoam.org
    \\  /    A nd           | Version:  9
     \\/     M anipulation  |
\*---------------------------------------------------------------------------*/
FoamFile
{
    format      ascii;
    class       volScalarField;
    location    "10";
    object      ThF4.gas;
}
// * * * * * * * * * * * * * * * * * * * * * * * * * * * * * * * * * * * * * //

dimensions      [0 0 0 0 0 0 0];

internalField   nonuniform List<scalar> 
2215
(
2.999282846e-13
2.984611784e-13
2.948507479e-13
2.882651882e-13
2.780696337e-13
2.639350751e-13
2.458502661e-13
2.239533542e-13
1.982457227e-13
1.682729431e-13
1.327875413e-13
8.933362462e-14
3.237153837e-14
1.278555955e-14
5.321824919e-15
2.324786325e-15
1.094039747e-15
5.85555422e-16
3.857389166e-16
3.333069103e-16
3.646270458e-16
4.338204143e-16
3.007676117e-13
2.994712842e-13
2.959781459e-13
2.893132119e-13
2.78822974e-13
2.642552262e-13
2.457559704e-13
2.236757914e-13
1.982546556e-13
1.69371478e-13
1.363845542e-13
9.902724242e-14
5.952167424e-14
3.284447555e-14
1.727492549e-14
8.927313625e-15
4.707265535e-15
2.671799771e-15
1.75575596e-15
1.424006693e-15
1.407387101e-15
1.519745827e-15
3.020246151e-13
3.00816802e-13
2.97309077e-13
2.904323084e-13
2.795447529e-13
2.644577368e-13
2.45444699e-13
2.230640851e-13
1.978242924e-13
1.699045998e-13
1.394418086e-13
1.065512086e-13
7.36350611e-14
4.668116187e-14
2.775387051e-14
1.59069781e-14
9.110710032e-15
5.478801889e-15
3.692336133e-15
2.955203515e-15
2.802907021e-15
2.90535738e-15
3.034901291e-13
3.023186494e-13
2.98744549e-13
2.916180725e-13
2.802927603e-13
2.646290401e-13
2.450145262e-13
2.222039845e-13
1.969655465e-13
1.6980289e-13
1.410043841e-13
1.111513709e-13
8.177463541e-14
5.603862599e-14
3.613782459e-14
2.23845883e-14
1.373936394e-14
8.733101264e-15
6.088422191e-15
4.899289503e-15
4.56321037e-15
4.626578086e-15
3.0508175e-13
3.039298707e-13
3.002735957e-13
2.928816326e-13
2.810917339e-13
2.648108672e-13
2.445282387e-13
2.211832585e-13
1.957620584e-13
1.690140943e-13
1.41418033e-13
1.135988836e-13
8.66000304e-14
6.234735638e-14
4.258583702e-14
2.801634287e-14
1.82273616e-14
1.219270801e-14
8.81693304e-15
7.203352403e-15
6.676907805e-15
6.691285493e-15
3.067750345e-13
3.056426763e-13
3.019017633e-13
2.942372645e-13
2.819694092e-13
2.650524779e-13
2.440636767e-13
2.201233794e-13
1.943891534e-13
1.678163389e-13
1.410494645e-13
1.146403109e-13
8.94141108e-14
6.659306778e-14
4.746793141e-14
3.276244743e-14
2.239614534e-14
1.569194787e-14
1.176972598e-14
9.811733248e-15
9.122684028e-15
9.09455313e-15
3.085685284e-13
3.074609052e-13
3.036361381e-13
2.956962202e-13
2.829526674e-13
2.654138762e-13
2.43758523e-13
2.191590529e-13
1.930286581e-13
1.664561423e-13
1.402164663e-13
1.148581319e-13
9.100069539e-14
6.946902973e-14
5.117761059e-14
3.673595576e-14
2.620547923e-14
1.914768995e-14
1.487855612e-14
1.268438585e-14
1.188448954e-14
1.183327928e-14
3.104666907e-13
3.093876916e-13
3.054776128e-13
2.972630056e-13
2.840594946e-13
2.659309147e-13
2.4365526e-13
2.184539873e-13
1.91865915e-13
1.651818068e-13
1.392646492e-13
1.146802249e-13
9.190146963e-14
7.1495129e-14
5.408357686e-14
4.012326154e-14
2.970981793e-14
2.25519971e-14
1.812190489e-14
1.580963072e-14
1.496488699e-14
1.491953208e-14
3.124713601e-13
3.114200871e-13
3.0741941e-13
2.989372893e-13
2.853085664e-13
2.666453074e-13
2.437913204e-13
2.181618229e-13
1.911853154e-13
1.643083549e-13
1.385470153e-13
1.144937847e-13
9.255061556e-14
7.309841162e-14
5.653028197e-14
4.314963809e-14
3.302993626e-14
2.596113943e-14
2.152905554e-14
1.921369741e-14
1.839630761e-14
1.839223773e-14
3.145774749e-13
3.135469611e-13
3.094478129e-13
3.007160077e-13
2.867252221e-13
2.676346443e-13
2.443296203e-13
2.182473783e-13
1.910030508e-13
1.640018459e-13
1.383179019e-13
1.146351443e-13
9.333566546e-14
7.466719099e-14
5.885604519e-14
4.607185841e-14
3.634094024e-14
2.949048977e-14
2.518299377e-14
2.296860135e-14
2.225039718e-14
2.23270991e-14
3.167712695e-13
3.157489091e-13
3.115435286e-13
3.025951451e-13
2.88336734e-13
2.689727061e-13
2.454115987e-13
2.190850262e-13
1.916214499e-13
1.645144664e-13
1.388987695e-13
1.1548862e-13
9.466003402e-14
7.659963717e-14
6.142133331e-14
4.918850759e-14
3.987437326e-14
3.331636065e-14
2.922557122e-14
2.71986646e-14
2.66467198e-14
2.684474015e-14
3.190306024e-13
3.180005841e-13
3.136869804e-13
3.045778231e-13
2.901816123e-13
2.707448452e-13
2.471763663e-13
2.208641755e-13
1.93404029e-13
1.663039496e-13
1.407493726e-13
1.175093361e-13
9.698708074e-14
7.934882565e-14
6.464423966e-14
5.286303079e-14
4.393215496e-14
3.76852744e-14
3.386579812e-14
3.208770382e-14
3.17584638e-14
3.211601552e-14
3.213267837e-13
3.202741362e-13
3.158638753e-13
3.066810322e-13
2.923184236e-13
2.730622358e-13
2.497970631e-13
2.238276777e-13
1.966635861e-13
1.69771256e-13
1.443542725e-13
1.212371462e-13
1.008780831e-13
8.346770329e-14
6.904197581e-14
5.755653514e-14
4.891056618e-14
4.293265052e-14
3.93871836e-14
3.788419457e-14
3.781556099e-14
3.836381312e-14
3.236274046e-13
3.225431488e-13
3.180705598e-13
3.089401709e-13
2.948297126e-13
2.760660324e-13
2.534860822e-13
2.282717938e-13
2.017908183e-13
1.754087475e-13
1.503019574e-13
1.273335633e-13
1.070321988e-13
8.9654217e-14
7.527533714e-14
6.386575549e-14
5.532851222e-14
4.949961605e-14
4.616131888e-14
4.490422868e-14
4.510411852e-14
4.586022407e-14
3.258998811e-13
3.247853954e-13
3.203179167e-13
3.114087281e-13
2.978208052e-13
2.799254998e-13
2.584901948e-13
2.34535649e-13
2.092340096e-13
1.837867384e-13
1.592849089e-13
1.365939301e-13
1.163094258e-13
9.878374995e-14
8.418533641e-14
7.255715729e-14
6.385383657e-14
5.794873688e-14
5.465068212e-14
5.353638577e-14
5.395988729e-14
5.491759688e-14
3.28115736e-13
3.269834765e-13
3.226369299e-13
3.141519909e-13
3.014109163e-13
2.848235041e-13
2.650666298e-13
2.429672434e-13
2.194551551e-13
1.955044398e-13
1.720521301e-13
1.499081978e-13
1.297050792e-13
1.118996469e-13
9.679697172e-14
8.457741263e-14
7.53135696e-14
6.896964076e-14
6.541009581e-14
6.422875009e-14
6.475472708e-14
6.58724596e-14
3.302541445e-13
3.29140887e-13
3.250504389e-13
3.172348444e-13
3.057110284e-13
2.909184612e-13
2.73425573e-13
2.538436373e-13
2.328264841e-13
2.110651654e-13
1.892702093e-13
1.681199343e-13
1.482209882e-13
1.301083511e-13
1.142430253e-13
1.010029833e-13
9.066134706e-14
8.335586857e-14
7.906798997e-14
7.746711647e-14
7.787409208e-14
7.906141931e-14
3.323017663e-13
3.312614452e-13
3.275817003e-13
3.207048673e-13
3.107844589e-13
2.982765649e-13
2.836277799e-13
2.672262456e-13
2.494379597e-13
2.306361387e-13
2.112422325e-13
1.91720949e-13
1.725613452e-13
1.543042957e-13
1.375386828e-13
1.228717659e-13
1.108607784e-13
1.019268659e-13
9.627336447e-14
9.373701851e-14
9.368365405e-14
9.478946205e-14
3.342481693e-13
3.333453107e-13
3.302387796e-13
3.245626317e-13
3.165915068e-13
3.067792016e-13
2.954436636e-13
2.827591402e-13
2.688235291e-13
2.53697573e-13
2.374808262e-13
2.203627819e-13
2.026150899e-13
1.846688866e-13
1.671428491e-13
1.508365242e-13
1.366370897e-13
1.253632615e-13
1.17591341e-13
1.134596709e-13
1.124818112e-13
1.132893206e-13
3.360833539e-13
3.353838613e-13
3.329965638e-13
3.287267126e-13
3.22929895e-13
3.160310836e-13
3.082206972e-13
2.994851036e-13
2.897108213e-13
2.787098555e-13
2.662807805e-13
2.523304018e-13
2.368464361e-13
2.200219598e-13
2.023373676e-13
1.846360852e-13
1.680770685e-13
1.539370083e-13
1.433325506e-13
1.368911036e-13
1.344358455e-13
1.346651445e-13
3.377967506e-13
3.373553288e-13
3.357853109e-13
3.330135586e-13
3.294105476e-13
3.253341919e-13
3.208598374e-13
3.158389831e-13
3.100230178e-13
3.030936174e-13
2.946541601e-13
2.843870214e-13
2.720047275e-13
2.573849718e-13
2.406888216e-13
2.225435849e-13
2.041535786e-13
1.871637308e-13
1.733237536e-13
1.639754062e-13
1.594929289e-13
1.588236461e-13
3.393759198e-13
3.392234422e-13
3.384910854e-13
3.371529979e-13
3.355090448e-13
3.338087756e-13
3.320299139e-13
3.299642094e-13
3.273449391e-13
3.238509886e-13
3.190360493e-13
3.124837159e-13
3.037218416e-13
2.92343622e-13
2.781160682e-13
2.611777321e-13
2.424024327e-13
2.23473173e-13
2.066608751e-13
1.941832741e-13
1.872740756e-13
1.853948812e-13
3.408075127e-13
3.409427079e-13
3.409750283e-13
3.408451017e-13
3.407012019e-13
3.406507548e-13
3.406185026e-13
3.404085072e-13
3.398510857e-13
3.387422568e-13
3.366790032e-13
3.333169406e-13
3.28121241e-13
3.205071963e-13
3.099956427e-13
2.961258839e-13
2.791031508e-13
2.601235826e-13
2.415400936e-13
2.263614256e-13
2.169648895e-13
2.13652015e-13
3.420736357e-13
3.424619759e-13
3.431353607e-13
3.438799726e-13
3.446615179e-13
3.454845373e-13
3.462487795e-13
3.467733963e-13
3.469844053e-13
3.469581509e-13
3.464158233e-13
3.452202594e-13
3.430208696e-13
3.392601386e-13
3.330133156e-13
3.234348521e-13
3.102052443e-13
2.935856298e-13
2.753203099e-13
2.586853282e-13
2.472336195e-13
2.424645273e-13
3.431811606e-13
3.437642747e-13
3.448943145e-13
3.461759566e-13
3.473917032e-13
3.484750542e-13
3.493578189e-13
3.50000438e-13
3.504414922e-13
3.506595313e-13
3.507173827e-13
3.504963625e-13
3.498540018e-13
3.484623144e-13
3.45808813e-13
3.410213862e-13
3.328054304e-13
3.204931663e-13
3.049485875e-13
2.888025233e-13
2.762854754e-13
2.703405802e-13
3.441363268e-13
3.448467081e-13
3.462588895e-13
3.478116787e-13
3.491440057e-13
3.501788987e-13
3.509283415e-13
3.514449687e-13
3.518056297e-13
3.520815822e-13
3.523059262e-13
3.524309538e-13
3.524631274e-13
3.522038968e-13
3.51415472e-13
3.495484987e-13
3.458102976e-13
3.38918578e-13
3.278148396e-13
3.142575245e-13
3.02124503e-13
2.956050478e-13
3.449511632e-13
3.457243445e-13
3.472759479e-13
3.489228287e-13
3.502086083e-13
3.510805674e-13
3.516351318e-13
3.519886908e-13
3.522405454e-13
3.524644418e-13
3.527006529e-13
3.529597796e-13
3.532388348e-13
3.534374478e-13
3.534930122e-13
3.530484898e-13
3.517156435e-13
3.487097378e-13
3.427951895e-13
3.332316838e-13
3.230067208e-13
3.167301899e-13
3.456415503e-13
3.464227308e-13
3.480076695e-13
3.496456677e-13
3.508251031e-13
3.515240668e-13
3.519065517e-13
3.521269633e-13
3.522971314e-13
3.524806222e-13
3.527075488e-13
3.529922094e-13
3.533343609e-13
3.53713481e-13
3.541077285e-13
3.543013343e-13
3.540690309e-13
3.530289116e-13
3.504579648e-13
3.45300495e-13
3.379860944e-13
3.327371074e-13
3.462246392e-13
3.469721243e-13
3.485191945e-13
3.500991489e-13
3.511685431e-13
3.517162157e-13
3.519722537e-13
3.520964038e-13
3.52184224e-13
3.522933083e-13
3.524672673e-13
3.527341071e-13
3.531174671e-13
3.536152645e-13
3.541719779e-13
3.546932623e-13
3.549527497e-13
3.547802288e-13
3.538533608e-13
3.514820465e-13
3.4728748e-13
3.435164433e-13
3.467164127e-13
3.474008743e-13
3.488628488e-13
3.503698126e-13
3.513454838e-13
3.517956925e-13
3.519669185e-13
3.520258831e-13
3.520532529e-13
3.521050014e-13
3.522139493e-13
3.524176096e-13
3.527567998e-13
3.532654234e-13
3.539478466e-13
3.547198859e-13
3.553040107e-13
3.555149456e-13
3.553039486e-13
3.542970077e-13
3.521544152e-13
3.498563019e-13
3.471332936e-13
3.477320225e-13
3.490814383e-13
3.505088333e-13
3.514300869e-13
3.518366408e-13
3.519677771e-13
3.519900794e-13
3.519857145e-13
3.520018468e-13
3.520652064e-13
3.521944809e-13
3.52445965e-13
3.52894495e-13
3.535782087e-13
3.544725796e-13
3.553994423e-13
3.558869636e-13
3.55976989e-13
3.555843247e-13
3.544442129e-13
3.531284215e-13
3.474776212e-13
3.479841948e-13
3.491921567e-13
3.505117239e-13
3.514287131e-13
3.518608809e-13
3.519883922e-13
3.520025827e-13
3.519879307e-13
3.519862965e-13
3.520159615e-13
3.520945572e-13
3.522498358e-13
3.525913188e-13
3.532223197e-13
3.541773455e-13
3.55332229e-13
3.561692295e-13
3.564178921e-13
3.562725909e-13
3.555418073e-13
3.54713536e-13
3.477462553e-13
3.481678084e-13
3.492126124e-13
3.504683487e-13
3.513901685e-13
3.518612867e-13
3.520358866e-13
3.520581265e-13
3.520434046e-13
3.520390773e-13
3.520485396e-13
3.520780489e-13
3.52165348e-13
3.523799352e-13
3.529053448e-13
3.538380567e-13
3.551197761e-13
3.563310906e-13
3.568343818e-13
3.568450596e-13
3.56224242e-13
3.55548622e-13
3.479391381e-13
3.482942415e-13
3.491916309e-13
3.503590164e-13
3.512950837e-13
3.518328501e-13
3.520802478e-13
3.521531281e-13
3.521615959e-13
3.52158757e-13
3.521528004e-13
3.52142026e-13
3.521530697e-13
3.522714497e-13
3.526657563e-13
3.535310306e-13
3.548788384e-13
3.563827352e-13
3.572242203e-13
3.573746867e-13
3.568312707e-13
3.561522312e-13
3.480762732e-13
3.483661447e-13
3.491263229e-13
3.501751419e-13
3.511165956e-13
3.517464604e-13
3.520688425e-13
3.52226933e-13
3.522829601e-13
3.522990018e-13
3.522917702e-13
3.52257059e-13
3.522087756e-13
3.522325252e-13
3.52500946e-13
3.532772935e-13
3.546643562e-13
3.563752932e-13
3.575532313e-13
3.578768298e-13
3.574203869e-13
3.567120862e-13
3.48256919e-13
3.484419848e-13
3.490028051e-13
3.499245983e-13
3.508490749e-13
3.515643304e-13
3.519968865e-13
3.522212746e-13
3.52350203e-13
3.524076652e-13
3.52414407e-13
3.523779267e-13
3.522931082e-13
3.522327553e-13
3.523965872e-13
3.530750116e-13
3.544654575e-13
3.563337776e-13
3.578313147e-13
3.583501985e-13
3.579851257e-13
3.57259138e-13
3.486948719e-13
3.486697813e-13
3.489770811e-13
3.49633143e-13
3.50478286e-13
3.512457157e-13
3.518082112e-13
3.521416191e-13
3.523288153e-13
3.524355453e-13
3.524750233e-13
3.524524676e-13
3.523605871e-13
3.522498449e-13
3.523365886e-13
3.529281268e-13
3.543239884e-13
3.563142375e-13
3.58068419e-13
3.58796631e-13
3.585171845e-13
3.57779961e-13
3.497975043e-13
3.493759186e-13
3.492554935e-13
3.495504045e-13
3.501035894e-13
3.507772655e-13
3.514170938e-13
3.519117546e-13
3.522086546e-13
3.523809044e-13
3.524573557e-13
3.524532055e-13
3.523823523e-13
3.522530343e-13
3.523073701e-13
3.528376148e-13
3.542585949e-13
3.563436543e-13
3.582890864e-13
3.592183733e-13
3.590125231e-13
3.582599565e-13
3.520560924e-13
3.511906003e-13
3.503203426e-13
3.500104092e-13
3.501732574e-13
3.505470124e-13
3.509923545e-13
3.514738659e-13
3.519021298e-13
3.522003648e-13
3.523569279e-13
3.523875349e-13
3.523395919e-13
3.522234555e-13
3.522767655e-13
3.528033004e-13
3.542453932e-13
3.564583143e-13
3.585315454e-13
3.596138965e-13
3.594670728e-13
3.586932435e-13
3.553476912e-13
3.543590358e-13
3.529300637e-13
3.516989361e-13
3.510540113e-13
3.509161585e-13
3.510363023e-13
3.512967119e-13
3.515989139e-13
3.519027227e-13
3.521357147e-13
3.522354114e-13
3.522227616e-13
3.521577687e-13
3.522467429e-13
3.528262153e-13
3.543677661e-13
3.566775121e-13
3.588434827e-13
3.599839511e-13
3.598779969e-13
3.590830977e-13
3.58346015e-13
3.576216351e-13
3.564460348e-13
3.550675553e-13
3.536786067e-13
3.524591002e-13
3.517653171e-13
3.5157567e-13
3.516407532e-13
3.517990458e-13
3.519695733e-13
3.520807773e-13
3.520956549e-13
3.520871282e-13
3.522399819e-13
3.529458696e-13
3.546436456e-13
3.570167871e-13
3.592217889e-13
3.60365849e-13
3.602449842e-13
3.594220533e-13
3.597958085e-13
3.59621493e-13
3.591288974e-13
3.581146812e-13
3.567207514e-13
3.552036179e-13
3.537452315e-13
3.526182852e-13
3.520648936e-13
3.519443237e-13
3.519872677e-13
3.520390196e-13
3.520405774e-13
3.520672124e-13
3.523179428e-13
3.532126232e-13
3.550969988e-13
3.57495829e-13
3.596926387e-13
3.60753478e-13
3.605676332e-13
3.596499482e-13
3.610420892e-13
3.62290588e-13
3.629044967e-13
3.622866192e-13
3.601284938e-13
3.576731719e-13
3.556240446e-13
3.541966283e-13
3.530890285e-13
3.524106363e-13
3.521636471e-13
3.520958768e-13
3.520616691e-13
3.521249855e-13
3.525386535e-13
3.537015521e-13
3.557102038e-13
3.581134837e-13
3.602549718e-13
3.611371239e-13
3.608041425e-13
3.597412083e-13
3.665309955e-13
3.724681827e-13
3.74819067e-13
3.741211601e-13
3.707546337e-13
3.642644827e-13
3.587387198e-13
3.557331604e-13
3.542410742e-13
3.532634977e-13
3.525940334e-13
3.522745055e-13
3.52159531e-13
3.52295544e-13
3.529481491e-13
3.544056977e-13
3.564425414e-13
3.588715831e-13
3.608927788e-13
3.614942277e-13
3.609051135e-13
3.597368472e-13
3.799384885e-13
3.867600627e-13
3.875131791e-13
3.861471393e-13
3.835459048e-13
3.767640571e-13
3.669758452e-13
3.589289459e-13
3.555547699e-13
3.541465199e-13
3.532530466e-13
3.526436431e-13
3.52392483e-13
3.526314624e-13
3.535136702e-13
3.551748184e-13
3.572865973e-13
3.597894084e-13
3.615639937e-13
3.617342746e-13
3.608266553e-13
3.595721129e-13
3.907403595e-13
3.926223903e-13
3.929343592e-13
3.922207876e-13
3.900090985e-13
3.849677601e-13
3.764878012e-13
3.65920741e-13
3.583146696e-13
3.552236499e-13
3.539805834e-13
3.531797316e-13
3.528226625e-13
3.531536078e-13
3.542461308e-13
3.560406862e-13
3.58336353e-13
3.608755475e-13
3.621600568e-13
3.618237442e-13
3.603946893e-13
3.592089031e-13
3.939608997e-13
3.943147303e-13
3.945645101e-13
3.944616417e-13
3.933188508e-13
3.898884542e-13
3.807447599e-13
3.703156422e-13
3.615963616e-13
3.566700446e-13
3.547322603e-13
3.537775811e-13
3.533864125e-13
3.538267216e-13
3.551857434e-13
3.572343315e-13
3.597565321e-13
3.620881724e-13
3.625538801e-13
3.614401805e-13
3.59749052e-13
3.587429453e-13
3.942385735e-13
3.943014149e-13
3.946012028e-13
3.948945148e-13
3.943149922e-13
3.899926101e-13
3.774002801e-13
3.684193052e-13
3.613004071e-13
3.568692333e-13
3.550229151e-13
3.541996174e-13
3.540111e-13
3.54665766e-13
3.566424923e-13
3.58917297e-13
3.614840794e-13
3.630419537e-13
3.627230893e-13
3.608755235e-13
3.59197428e-13
3.583347105e-13
3.925063488e-13
3.925803194e-13
3.929977295e-13
3.940503196e-13
3.94244577e-13
3.907716835e-13
3.693279408e-13
3.621802112e-13
3.588336903e-13
3.56266535e-13
3.548875389e-13
3.543078003e-13
3.543864065e-13
3.557551442e-13
3.588448358e-13
3.606651299e-13
3.626537221e-13
3.634260049e-13
3.627792846e-13
3.606934391e-13
3.588523914e-13
3.580199707e-13
3.900658077e-13
3.902751123e-13
3.90995198e-13
3.919105171e-13
3.925990008e-13
3.908499642e-13
3.508636299e-13
3.570797392e-13
3.552949721e-13
3.545312948e-13
3.542061984e-13
3.5417238e-13
3.546292895e-13
3.578039513e-13
3.603464639e-13
3.610680021e-13
3.624918559e-13
3.624553426e-13
3.617315413e-13
3.599059258e-13
3.578441273e-13
3.572252801e-13
3.879325409e-13
3.88370372e-13
3.893273372e-13
3.900323205e-13
3.905397313e-13
3.879891736e-13
3.562754473e-13
3.538931586e-13
3.532933672e-13
3.533639117e-13
3.536764522e-13
3.541575617e-13
3.556772587e-13
3.606813176e-13
3.611818603e-13
3.538847634e-13
3.552420185e-13
3.552062357e-13
3.544969105e-13
3.527078073e-13
3.506872447e-13
3.500807745e-13
3.859568911e-13
3.866631785e-13
3.87503505e-13
3.881922977e-13
3.882510724e-13
3.757904919e-13
3.620780635e-13
3.464065624e-13
3.534391909e-13
3.536231345e-13
3.542012081e-13
3.552701413e-13
3.591824857e-13
3.634727005e-13
3.630733757e-13
3.55805425e-13
3.46613507e-13
3.395658956e-13
3.426537533e-13
3.443069078e-13
3.346497348e-13
3.607125263e-17
3.842498884e-13
3.848818167e-13
3.856069264e-13
3.860999533e-13
3.859469036e-13
3.746447441e-13
3.630270311e-13
3.403135968e-13
3.474303541e-13
3.557846504e-13
3.570263081e-13
3.589325555e-13
3.634929423e-13
3.647127397e-13
3.574172709e-13
3.445551398e-13
3.358201973e-13
3.285679043e-13
3.391485925e-15
7.044611019e-17
3.701902236e-18
3.926378721e-21
3.827762024e-13
3.834305136e-13
3.839797761e-13
3.842831208e-13
3.822997061e-13
3.713760072e-13
3.603170362e-13
3.417952008e-13
3.440615913e-13
3.518737032e-13
3.609544154e-13
3.637313669e-13
3.657122689e-13
3.655644202e-13
3.582514727e-13
3.45523561e-13
3.373001501e-13
3.295996758e-13
2.810741196e-15
1.909293384e-19
1.666536153e-22
4.416301965e-25
3.815511446e-13
3.821057363e-13
3.824640355e-13
3.825071592e-13
3.727509491e-13
3.63006866e-13
3.527531808e-13
3.363053019e-13
3.327975152e-13
3.394934565e-13
3.552142892e-13
3.63647818e-13
3.654749228e-13
3.653525402e-13
3.564067059e-13
3.471157213e-13
3.392767272e-13
3.207720801e-13
7.984683922e-16
4.977296499e-20
3.653246942e-24
4.706173056e-28
3.805788949e-13
3.809622526e-13
3.811446086e-13
3.808693253e-13
3.721869934e-13
3.629865964e-13
3.529915581e-13
3.425223655e-13
3.261605494e-13
3.327290654e-13
3.475908777e-13
3.5619057e-13
3.581065958e-13
3.580032195e-13
3.490345243e-13
3.387512512e-13
3.30722172e-13
2.080282075e-13
1.019508113e-16
6.265522653e-21
4.746624293e-25
5.571082389e-29
3.798514606e-13
3.800267619e-13
3.79945481e-13
3.720532594e-13
3.642539759e-13
3.558364138e-13
3.463020141e-13
3.350464601e-13
3.185593906e-13
3.260475522e-13
3.403236124e-13
3.490655954e-13
3.50925734e-13
3.505980742e-13
3.420084526e-13
3.317035122e-13
2.149328297e-13
2.186265144e-15
1.641484995e-19
1.077144694e-23
8.322481036e-28
7.210852827e-32
3.793765625e-13
3.791921508e-13
3.790977414e-13
3.710443017e-13
3.63537414e-13
3.503207183e-13
3.380258179e-13
2.87150005e-13
2.602193531e-13
2.960092094e-13
3.103813101e-13
3.140943269e-13
3.409536148e-13
3.357400749e-13
2.099665035e-13
4.679733225e-14
2.028152437e-15
5.684075783e-19
8.944091783e-23
7.041162337e-27
5.836907846e-31
4.238107367e-35
3.792083277e-13
3.78434844e-13
3.783039989e-13
3.706484674e-13
3.632336405e-13
3.551583379e-13
1.234371821e-15
7.891115373e-15
1.569154286e-13
2.633391122e-13
2.902729123e-13
2.775444103e-13
2.235940785e-13
3.357966213e-14
2.527573975e-15
5.600464559e-17
1.321965302e-19
1.489791482e-22
2.552166771e-26
2.662811269e-30
2.564156687e-34
1.390313821e-38
3.790352005e-13
3.775458071e-13
3.773708868e-13
3.698056034e-13
3.624085125e-13
3.472441529e-13
4.359409085e-16
4.661647867e-17
1.014461732e-14
8.407509207e-14
1.371512897e-13
1.364688475e-13
5.970883223e-15
2.823591641e-16
1.515690126e-17
1.332333267e-19
1.110509403e-22
4.253078544e-26
7.002870043e-30
9.013735647e-34
9.629127581e-38
4.076039709e-42
3.791151525e-13
3.764825416e-13
3.762386202e-13
3.687114398e-13
3.613358296e-13
2.61044791e-14
1.917020074e-17
0
0
7.143802135e-16
4.731221439e-15
9.271340487e-16
1.30292219e-16
5.903850721e-18
1.051928516e-19
4.361542324e-22
2.86592724e-25
5.549879623e-29
6.36913859e-33
7.078181653e-37
6.086589381e-41
1.908924677e-45
3.7922231e-13
3.749953944e-13
3.746543469e-13
3.671612002e-13
3.552618726e-13
1.662392401e-14
0
2.372480358e-22
0
6.636538532e-18
7.823574188e-17
5.960323306e-18
1.478501049e-18
7.537644721e-20
6.779223461e-22
1.417566988e-24
7.461802448e-28
1.397676678e-31
1.506649471e-35
1.443067855e-39
8.247978868e-44
1.19410544e-48
3.791923908e-13
3.719653763e-13
3.716606644e-13
3.642274509e-13
3.493301481e-13
4.626236802e-15
3.251812816e-19
0
6.405263993e-22
5.726887465e-20
7.889108397e-19
5.526936874e-20
1.485661868e-20
6.142086728e-22
3.149307603e-24
4.087905376e-27
1.830477967e-30
3.080560864e-34
3.288006902e-38
2.659877044e-42
1.143290774e-46
1.323840362e-51
3.784950383e-13
3.682907711e-13
3.674659253e-13
3.601166068e-13
3.157328043e-13
2.162587187e-15
4.178647844e-19
0
4.662412529e-24
5.430048895e-22
7.190314114e-21
5.271492631e-22
1.348368771e-22
3.824440312e-24
1.195841584e-26
1.111669848e-29
4.249003413e-33
6.031379213e-37
5.889448339e-41
3.414844746e-45
5.787575501e-50
1.043284421e-55
3.753632652e-13
3.633374896e-13
3.613046313e-13
3.540785387e-13
2.887234078e-13
3.510965436e-16
0
1.231057688e-22
0
5.348332265e-24
6.52387259e-23
5.055559565e-24
1.30536852e-24
2.19073452e-26
4.287105416e-29
2.876205175e-32
8.518955763e-36
9.894124905e-40
7.497861561e-44
2.883376493e-48
3.344454918e-53
2.504135681e-59
3.706049614e-13
3.496783847e-13
3.477866012e-13
3.408308691e-13
1.197087856e-13
7.036337241e-17
4.763172597e-21
0
1.112675248e-27
6.54549886e-26
6.399835829e-25
4.598019916e-26
4.056313546e-27
7.065704198e-29
1.02829173e-31
5.073377678e-35
1.07082015e-38
9.745919315e-43
4.634705431e-47
5.795163347e-52
3.748644217e-58
4.48302291e-64
3.611969846e-13
3.371030928e-13
3.35017183e-13
3.283168393e-13
7.375017532e-14
2.74884341e-17
0
6.227292683e-25
1.252111098e-28
2.82821721e-28
1.88217273e-27
2.299139935e-28
3.626593857e-30
1.435907366e-31
1.55054401e-34
5.466202396e-38
7.864756813e-42
4.981921049e-46
1.387242351e-50
1.130452526e-55
7.040609877e-61
7.396305588e-66
3.546776665e-13
3.243089027e-13
3.219884725e-13
3.15548703e-13
9.922692051e-15
6.026837471e-19
7.36935857e-24
1.510291897e-27
1.274432147e-30
1.937068211e-31
2.269168307e-30
7.97582035e-31
6.556627715e-33
1.832906595e-34
1.472950123e-37
3.650818333e-41
3.375478585e-45
1.365629538e-49
1.965019003e-54
1.275791436e-59
1.575156827e-64
2.554846068e-69
3.4335484e-13
3.091439648e-13
3.067769065e-13
3.006413684e-13
3.989608004e-16
1.290137168e-19
5.521668136e-23
2.365241429e-26
1.657104116e-29
1.217550396e-32
4.713895894e-33
1.920481211e-33
1.068035855e-35
1.472856489e-37
8.535507798e-41
1.416853092e-44
7.60744482e-49
1.090086898e-53
7.704696175e-59
1.02030562e-63
1.349828338e-68
1.846189409e-73
3.242999275e-13
2.948877055e-13
2.928048847e-13
2.86948787e-13
1.839787911e-16
1.14041256e-19
7.626534646e-23
5.388260645e-26
4.553747704e-29
3.821385665e-32
4.026503583e-35
3.029792437e-36
1.162770653e-38
7.109139573e-41
2.742029553e-44
2.684966438e-48
6.282610465e-53
5.00552106e-58
6.114744224e-63
8.084760488e-68
1.062209915e-72
1.821269712e-77
3.206467162e-13
2.818468985e-13
2.791616737e-13
2.735784402e-13
1.768201276e-16
1.534405456e-19
1.283361463e-22
1.06001506e-25
9.127644277e-29
7.372816036e-32
5.282752364e-35
3.32836499e-38
1.952574565e-41
2.185558372e-44
4.679990917e-48
2.654636867e-52
5.825836364e-57
8.963324093e-62
1.25383006e-66
1.526373663e-71
1.813193561e-76
3.147509558e-81
3.077732182e-13
2.609519471e-13
2.57753217e-13
2.525981527e-13
3.233919754e-16
3.555242165e-19
3.337247282e-22
2.842222966e-25
2.312513789e-28
1.65482917e-31
9.729292556e-35
4.259557269e-38
1.257944677e-41
2.300941776e-45
1.811735568e-49
1.745629076e-54
1.331815503e-59
2.012921086e-64
2.738158574e-69
3.173226658e-74
3.454515124e-79
5.63857492e-84
2.824270241e-13
2.419615388e-13
2.389856081e-13
2.342058959e-13
2.941534463e-16
3.759915667e-19
3.855249163e-22
3.319687526e-25
2.575937244e-28
1.67273681e-31
8.446742109e-35
2.98738657e-38
6.516831344e-42
6.770458785e-46
2.369791822e-50
4.718368309e-55
7.705169147e-60
1.199518602e-64
1.665683316e-69
1.924055031e-74
1.967509826e-79
3.223801229e-84
2.623034649e-13
2.245968453e-13
2.215934641e-13
2.171615948e-13
2.581722104e-16
3.532328904e-19
3.903867376e-22
3.407854746e-25
2.604686686e-28
1.626833214e-31
7.682631791e-35
2.46933156e-38
4.93107464e-42
5.45552715e-46
2.004650082e-50
1.660818771e-55
2.807543425e-60
4.524399741e-65
6.458992152e-70
7.496145591e-75
6.992581904e-80
1.094235252e-84
2.393392057e-13
2.084368465e-13
2.057369726e-13
2.016222331e-13
3.88568243e-16
8.331897482e-19
9.731496005e-22
9.046189079e-25
6.943876389e-28
4.336717516e-31
2.156655848e-34
7.157234878e-38
1.391301059e-41
1.763492686e-45
1.167449264e-49
2.069934497e-54
3.728609119e-59
6.214081947e-64
9.120215451e-69
1.077999005e-73
9.470306684e-79
1.381358361e-83
2.186803945e-13
1.961006696e-13
1.940751395e-13
1.901936367e-13
2.88853653e-16
5.135645347e-19
6.212020924e-22
5.72044812e-25
4.449419439e-28
2.822456696e-31
1.388367655e-34
4.502809104e-38
8.162699512e-42
5.475851757e-46
7.244029531e-51
1.332888658e-55
2.407706256e-60
4.230698662e-65
6.376002721e-70
7.600314158e-75
7.058633653e-80
1.009168214e-84
2.062476514e-13
1.90608889e-13
1.878609263e-13
1.841037078e-13
2.402530658e-16
3.706004421e-19
4.554997879e-22
4.066964853e-25
3.201109758e-28
2.063566174e-31
9.804164997e-35
3.074243176e-38
7.133602067e-42
8.604927837e-46
1.226356044e-50
2.320834204e-55
4.315363892e-60
7.678006369e-65
1.184876065e-69
1.425120581e-74
1.301032682e-79
1.73553081e-84
2.056623823e-13
1.767651473e-13
1.736427361e-13
1.701698814e-13
1.497775286e-16
1.999176867e-19
2.440541664e-22
2.174235525e-25
1.724586135e-28
1.127354002e-31
5.426595663e-35
1.793373384e-38
4.404747075e-42
6.898541843e-46
3.873200993e-50
7.514395562e-55
1.433132707e-59
2.626294574e-64
4.150507143e-69
5.042137449e-74
4.525256936e-79
5.595599282e-84
1.82856563e-13
1.641355173e-13
1.616808689e-13
1.584472515e-13
1.588861081e-16
1.911935463e-19
2.2863031e-22
2.017774293e-25
1.605437373e-28
1.062077312e-31
5.203215654e-35
1.885418319e-38
4.590951239e-42
4.363440898e-46
1.114839944e-50
2.206557467e-55
4.288064301e-60
8.059225734e-65
1.307688659e-69
1.612887883e-74
1.426005367e-79
1.596916705e-84
1.902490623e-13
1.576415415e-13
1.537786296e-13
1.50703057e-13
1.120710105e-16
1.36010338e-19
1.603859865e-22
1.45155466e-25
2.006479912e-28
2.535284268e-31
1.423040219e-34
6.285188025e-38
1.981085057e-41
2.880816843e-45
6.072929795e-50
1.217207683e-54
2.386339707e-59
4.566542768e-64
7.620262134e-69
9.600010239e-74
8.399295526e-79
8.013874352e-84
1.672078696e-13
1.376384036e-13
1.343543483e-13
1.316672614e-13
2.497649537e-16
6.502393482e-19
7.558781759e-22
6.955657161e-25
9.935286427e-28
1.307064825e-30
8.861574547e-34
4.860655862e-37
1.460157401e-40
1.845299799e-44
2.325837221e-49
4.678844195e-54
9.159328473e-59
1.769627824e-63
3.030324623e-68
3.909374134e-73
3.403811993e-78
2.680246294e-83
1.469972861e-13
1.236811804e-13
1.210576636e-13
1.186365104e-13
1.130331598e-16
1.323226511e-19
1.557663617e-22
1.49411685e-25
2.008452506e-28
2.390954952e-31
1.820688973e-34
1.101278543e-37
2.58055261e-41
2.156488127e-45
5.998954448e-50
1.197855445e-54
2.322286601e-59
4.49335095e-64
7.837007198e-69
1.032010779e-73
8.993211096e-79
7.830653068e-84
1.288291344e-13
1.103189892e-13
1.083364398e-13
1.06169711e-13
1.139213617e-16
1.595336701e-19
2.108706609e-22
2.823316477e-25
4.535028091e-28
4.851708978e-31
3.722571759e-34
2.885143699e-37
1.196635384e-40
1.094175117e-44
2.589523127e-49
5.082267987e-54
9.734223417e-59
1.877289402e-63
3.30025642e-68
4.402529706e-73
3.838939988e-78
2.967050993e-83
1.070705616e-13
9.692620722e-14
9.577224608e-14
9.385680116e-14
1.216336758e-16
2.328483202e-19
3.520342744e-22
5.735374249e-25
1.053219025e-27
1.120862843e-30
8.527563481e-34
5.693615885e-37
2.040245173e-40
2.416815713e-44
6.069694331e-49
1.165829838e-53
2.222112017e-58
4.280846049e-63
7.509655677e-68
1.004439125e-72
8.7826086e-78
5.584644026e-83
9.520398739e-14
8.858877232e-14
8.745397117e-14
8.570489175e-14
9.791264722e-17