/*--------------------------------*- C++ -*----------------------------------*\
  =========                 |
  \\      /  F ield         | OpenFOAM: The Open Source CFD Toolbox
   \\    /   O peration     | Website:  https://openfoam.org
    \\  /    A nd           | Version:  9
     \\/     M anipulation  |
\*---------------------------------------------------------------------------*/
FoamFile
{
    format      ascii;
    class       volVectorField;
    location    "10";
    object      U.gas;
}
// * * * * * * * * * * * * * * * * * * * * * * * * * * * * * * * * * * * * * //

dimensions      [0 1 -1 0 0 0 0];

internalField   nonuniform List<vector> 
2215
(
(0.0003180723536 0.01769543217 0)
(0.001832959449 0.04919253211 0)
(0.003815246711 0.07403134387 0)
(0.005843716035 0.09036888956 0)
(0.007410118609 0.09769569673 0)
(0.008188894334 0.09699482608 0)
(0.008187558656 0.09008725729 0)
(0.007426437481 0.07797489262 0)
(0.006201833043 0.0630734597 0)
(0.004757390841 0.04678557419 0)
(0.003305660249 0.03015725483 0)
(0.00204370532 0.0139739117 0)
(0.0008031647289 -0.0007819550136 0)
(0.0003600059293 -0.01314902361 0)
(0.0001100058675 -0.02281412914 0)
(2.090820674e-06 -0.02943164852 0)
(-2.939368294e-05 -0.03294773641 0)
(-3.466228542e-05 -0.03344166746 0)
(-2.858425404e-05 -0.03100923266 0)
(-1.774060097e-05 -0.0257354416 0)
(-6.278458959e-06 -0.01767266437 0)
(1.829796457e-06 -0.006833152918 0)
(0.0001583409947 0.01904264373 0)
(0.001755126746 0.05181126116 0)
(0.004021824907 0.07712289255 0)
(0.006342637657 0.09314954584 0)
(0.008045973342 0.09949500266 0)
(0.008798936401 0.09764235426 0)
(0.008674114057 0.08947550377 0)
(0.007694760956 0.07648458454 0)
(0.006261933109 0.061104132 0)
(0.004655163754 0.04470326939 0)
(0.003120182482 0.02823625129 0)
(0.001880764382 0.0124529615 0)
(0.0009564216908 -0.001791943887 0)
(0.0003821553498 -0.01372110831 0)
(2.71336564e-05 -0.02306791929 0)
(-0.0001396963413 -0.02951673628 0)
(-0.0001938173668 -0.03294281214 0)
(-0.0001836550439 -0.03339597004 0)
(-0.0001413718466 -0.0309484898 0)
(-8.629402649e-05 -0.0256735017 0)
(-3.535846105e-05 -0.01761964473 0)
(-2.268320815e-06 -0.006803405128 0)
(0.000183227056 0.01999009817 0)
(0.001868604023 0.05380874797 0)
(0.004312678965 0.07939652026 0)
(0.006732606609 0.09502574389 0)
(0.008407989568 0.1005568414 0)
(0.009065549647 0.09794102591 0)
(0.008749428372 0.08885257418 0)
(0.007604162772 0.07528572189 0)
(0.006032072591 0.05959143441 0)
(0.004319116494 0.04312064438 0)
(0.002716083099 0.02679566911 0)
(0.0014261587 0.01132006951 0)
(0.000520264877 -0.002581466897 0)
(-5.374440753e-05 -0.01426710459 0)
(-0.0003830616152 -0.02338040322 0)
(-0.0005207137975 -0.02966165184 0)
(-0.0005306296996 -0.03297882435 0)
(-0.0004546312659 -0.03337347226 0)
(-0.0003378823253 -0.03089506286 0)
(-0.0002071324704 -0.02561080366 0)
(-8.933732e-05 -0.01757009119 0)
(-1.093778006e-05 -0.006788771838 0)
(0.0001943171642 0.02097338518 0)
(0.002006092589 0.05602720572 0)
(0.004612796681 0.08198834816 0)
(0.007104295366 0.09716473569 0)
(0.008714203218 0.101706394 0)
(0.009184959345 0.09806758966 0)
(0.0086808 0.0879899629 0)
(0.007318794475 0.07382621489 0)
(0.005566012186 0.05785798003 0)
(0.00372232126 0.04140233892 0)
(0.002035674046 0.02531566133 0)
(0.0006892714366 0.01021685832 0)
(-0.0002391749284 -0.003309386182 0)
(-0.000792428345 -0.01471336996 0)
(-0.001060233785 -0.02360453515 0)
(-0.001117630502 -0.02972292083 0)
(-0.001024856635 -0.03291262796 0)
(-0.0008369296343 -0.03324190134 0)
(-0.0006062641273 -0.03073227434 0)
(-0.0003671466624 -0.02544756243 0)
(-0.0001577062096 -0.01744117561 0)
(-1.778710068e-05 -0.006732099325 0)
(0.0002175552898 0.02203597262 0)
(0.002187341574 0.05837734622 0)
(0.004929890145 0.08462024276 0)
(0.007423006576 0.09919266928 0)
(0.008894468227 0.1026516819 0)
(0.00917624691 0.09800889413 0)
(0.008384458642 0.08690771785 0)
(0.006798716414 0.07218343454 0)
(0.004870994645 0.05598524957 0)
(0.002904430215 0.03958148116 0)
(0.001138766704 0.02376158305 0)
(-0.0002561574632 0.009060784235 0)
(-0.001202858292 -0.00404925439 0)
(-0.001728057205 -0.01510741884 0)
(-0.001918014529 -0.02373361408 0)
(-0.001863823693 -0.02966486516 0)
(-0.001637420269 -0.03271091203 0)
(-0.001305828114 -0.03297217359 0)
(-0.0009299507228 -0.03043564525 0)
(-0.0005563791808 -0.02516412234 0)
(-0.0002369172672 -0.01721904278 0)
(-2.584111855e-05 -0.00663274569 0)
(0.0002489768294 0.02320150494 0)
(0.002386017885 0.06088710903 0)
(0.005227347612 0.08732260704 0)
(0.007654925315 0.1011475823 0)
(0.008919524256 0.1034205894 0)
(0.00892727725 0.0976856673 0)
(0.007829131538 0.08556251625 0)
(0.006035012843 0.07033227847 0)
(0.003953274593 0.05396249171 0)
(0.001886194433 0.03766100985 0)
(6.38298731e-05 0.02214579454 0)
(-0.001356426293 0.00787094235 0)
(-0.002300201489 -0.004785624827 0)
(-0.002782968475 -0.01544446403 0)
(-0.002884018671 -0.02375919599 0)
(-0.002700516004 -0.02947113892 0)
(-0.002321911901 -0.03235678114 0)
(-0.001826917355 -0.03254630811 0)
(-0.001285834435 -0.02998837052 0)
(-0.0007612849655 -0.02474884091 0)
(-0.0003208090878 -0.01690013567 0)
(-3.428523822e-05 -0.0064931228 0)
(0.0002886856554 0.02447687482 0)
(0.002594223312 0.06352781618 0)
(0.005485672581 0.0900145953 0)
(0.007769741925 0.1029197258 0)
(0.008755610677 0.1039267227 0)
(0.008450232658 0.09701366733 0)
(0.007032513183 0.08397645829 0)
(0.005038073689 0.06830169644 0)
(0.002827035096 0.05182201567 0)
(0.0006904425372 0.0356738506 0)
(-0.001155980606 0.02050138241 0)
(-0.002568494064 0.006681711963 0)
(-0.003478562416 -0.005489419852 0)
(-0.003896222443 -0.01570716897 0)
(-0.003894326886 -0.02366873405 0)
(-0.003568904129 -0.0291280536 0)
(-0.003032095821 -0.03183571142 0)
(-0.002357990103 -0.03194976353 0)
(-0.001646642201 -0.02937817243 0)
(-0.0009658102476 -0.02419305901 0)
(-0.000402754621 -0.01647938993 0)
(-4.197114539e-05 -0.006310675433 0)
(0.0003357224953 0.02586851412 0)
(0.002799033995 0.06627403017 0)
(0.005673735854 0.09263654547 0)
(0.007730049549 0.104444215 0)
(0.008356005351 0.1041501143 0)
(0.007697385046 0.095978476 0)
(0.005970991224 0.0821528233 0)
(0.003796183016 0.06611228773 0)
(0.001493470591 0.04959564075 0)
(-0.0006693838911 0.03365674796 0)
(-0.002496166074 0.01886635748 0)
(-0.003858695998 0.005530218649 0)
(-0.004696713282 -0.006128921516 0)
(-0.005019428917 -0.01587404942 0)
(-0.004895254053 -0.02344947401 0)
(-0.004416161972 -0.02862604304 0)
(-0.003718080145 -0.03114453236 0)
(-0.002864588313 -0.03117727357 0)
(-0.001985465044 -0.02860351523 0)
(-0.001154002213 -0.02349822084 0)
(-0.0004760720414 -0.01596027603 0)
(-4.827511404e-05 -0.006088193187 0)
(0.0003897567397 0.02737536141 0)
(0.002983859683 0.06907691581 0)
(0.005751657249 0.09509646451 0)
(0.007459826706 0.1056137464 0)
(0.007684495618 0.1040258834 0)
(0.006610036669 0.09456109737 0)
(0.004607711393 0.0800961972 0)
(0.00228802019 0.06380133333 0)
(-5.689527718e-05 0.04733065842 0)
(-0.002190819616 0.03165913676 0)
(-0.003942961351 0.01728884915 0)
(-0.005203705613 0.004460979031 0)
(-0.005923679879 -0.006666460325 0)
(-0.006114927373 -0.01591785996 0)
(-0.005843769295 -0.02308441567 0)
(-0.005198595006 -0.02795858939 0)
(-0.004337429072 -0.0302847729 0)
(-0.003313634977 -0.03023471691 0)
(-0.002277583392 -0.02767354034 0)
(-0.001311168193 -0.02267603703 0)
(-0.0005346860038 -0.01535424026 0)
(-5.264643671e-05 -0.005831852795 0)
(0.0004507094171 0.02898815847 0)
(0.003127026876 0.07186522621 0)
(0.005666592177 0.0972892884 0)
(0.006909318254 0.1063737736 0)
(0.006635259049 0.1034459771 0)
(0.005116227988 0.09280694908 0)
(0.00288071294 0.07784882641 0)
(0.0004682068932 0.0614212718 0)
(-0.001855098629 0.04508682861 0)
(-0.003890564559 0.02974266992 0)
(-0.005499256516 0.01582820111 0)
(-0.006594340737 0.003527879635 0)
(-0.007140514754 -0.007056802302 0)
(-0.00715597918 -0.01580521903 0)
(-0.006707655255 -0.0225532082 0)
(-0.005882266851 -0.02711948761 0)
(-0.004856348477 -0.02926175085 0)
(-0.003674765145 -0.0291354268 0)
(-0.002500944499 -0.02660664594 0)
(-0.001424111654 -0.02174732639 0)
(-0.0005732056893 -0.01467971002 0)
(-5.461833535e-05 -0.00555069882 0)
(0.0005172408548 0.03068441741 0)
(0.003193371141 0.07453433228 0)
(0.005342634914 0.09907512634 0)
(0.005974088388 0.1066095002 0)
(0.005106912489 0.1023448399 0)
(0.003132715121 0.09072823759 0)
(0.0007030331248 0.07545244562 0)
(-0.001739388134 0.05903545942 0)
(-0.003961924815 0.04293877078 0)
(-0.005812306811 0.0279845628 0)
(-0.007191409867 0.01455825926 0)
(-0.00804100767 0.002797174288 0)
(-0.008344159072 -0.007244830195 0)
(-0.008128893171 -0.01549527339 0)
(-0.007466041559 -0.02183111569 0)
(-0.00644266259 -0.02610116014 0)
(-0.005247403512 -0.02808186545 0)
(-0.00392304832 -0.02789781609 0)
(-0.002636443605 -0.02542895401 0)
(-0.001481114102 -0.02074087237 0)
(-0.0005867470464 -0.01396129718 0)
(-5.375556543e-05 -0.00525634328 0)
(0.0005867951279 0.03241866859 0)
(0.003131944356 0.07693804948 0)
(0.004682131716 0.1002833116 0)
(0.004532310648 0.1062006783 0)
(0.002969573988 0.1006599808 0)
(0.0005448280397 0.08834971454 0)
(-0.002045323604 0.0729596149 0)
(-0.004448107112 0.05672027538 0)
(-0.00647699413 0.04097754461 0)
(-0.008037148506 0.02648060575 0)
(-0.009079465353 0.01357141381 0)
(-0.009582674011 0.002351918346 0)
(-0.009554572748 -0.007161513723 0)
(-0.009037913145 -0.01493681525 0)
(-0.008111014568 -0.02088814171 0)
(-0.006865470602 -0.02489056003 0)
(-0.005490865078 -0.02674974463 0)
(-0.00403867564 -0.02654328675 0)
(-0.002667734324 -0.02417243377 0)
(-0.00147153763 -0.01969215516 0)
(-0.0005705576532 -0.01322915856 0)
(-4.955400678e-05 -0.004962852862 0)
(0.0006501039779 0.03410760628 0)
(0.002870543321 0.07889889764 0)
(0.003567460971 0.100708265 0)
(0.002441173597 0.1050011344 0)
(7.44705105e-05 0.09833995939 0)
(-0.002795582291 0.08568535271 0)
(-0.005526302223 0.07042147156 0)
(-0.007819404138 0.0545597261 0)
(-0.009551907982 0.03930917674 0)
(-0.0106986056 0.02534711779 0)
(-0.0112726856 0.01298325366 0)
(-0.01130138928 0.002298105671 0)
(-0.01082709327 -0.00671738206 0)
(-0.009914765489 -0.01406175751 0)
(-0.00865512095 -0.01967995952 0)
(-0.007149244648 -0.02346954335 0)
(-0.005577165648 -0.02526623401 0)
(-0.004007856352 -0.02509370751 0)
(-0.002581491363 -0.02287274643 0)
(-0.001385609743 -0.01864199063 0)
(-0.0005196906071 -0.01251853492 0)
(-4.133399017e-05 -0.00468688345 0)
(0.0006795062467 0.03564110899 0)
(0.002327412438 0.08008419283 0)
(0.001870803753 0.1000921017 0)
(-0.0004556035066 0.1028296706 0)
(-0.003729859178 0.09537186541 0)
(-0.00708346511 0.08271517679 0)
(-0.009948756301 0.06787969222 0)
(-0.01207319635 0.0526390039 0)
(-0.0134064094 0.03805084188 0)
(-0.01400302628 0.02472100365 0)
(-0.01395235913 0.01293693263 0)
(-0.01334526212 0.002772212127 0)
(-0.0122733878 -0.005793475084 0)
(-0.01083611603 -0.01277649838 0)
(-0.009144926817 -0.01814264794 0)
(-0.007316163927 -0.02180482638 0)
(-0.005513200725 -0.02362360007 0)
(-0.003826640156 -0.02356736066 0)
(-0.002369505294 -0.02156616745 0)
(-0.001215278098 -0.01763466829 0)
(-0.0004291471756 -0.01186919374 0)
(-2.818042798e-05 -0.004447936492 0)
(0.0006723801028 0.03693883551 0)
(0.00135125306 0.08030117997 0)
(-0.0005589810252 0.09818022841 0)
(-0.004317353364 0.09951631872 0)
(-0.00861955811 0.091673554 0)
(-0.01254517161 0.07940247646 0)
(-0.01557022556 0.06535486762 0)
(-0.01749816343 0.05102972032 0)
(-0.01834725992 0.03732036369 0)
(-0.01825598375 0.02475523456 0)
(-0.01740367441 0.01360521244 0)
(-0.01596302045 0.003949128956 0)
(-0.01409542479 -0.00422941181 0)
(-0.01195402688 -0.01094824257 0)
(-0.009685816534 -0.01617903225 0)
(-0.007430991563 -0.01983746357 0)
(-0.005336420475 -0.02179717416 0)
(-0.003510391917 -0.02197208203 0)
(-0.002034549321 -0.02028436554 0)
(-0.000957341429 -0.01671456045 0)
(-0.000295092897 -0.01132396089 0)
(-9.075422584e-06 -0.00426825312 0)
(0.0006253601185 0.03748263882 0)
(-8.958892796e-05 0.07909444092 0)
(-0.003816180703 0.09461273202 0)
(-0.0092867618 0.09486672316 0)
(-0.01478567812 0.0870896548 0)
(-0.01941915488 0.07566602624 0)
(-0.02269220795 0.06281964469 0)
(-0.02445641534 0.04976453873 0)
(-0.02478343509 0.03721548937 0)
(-0.02388898164 0.0256054344 0)
(-0.02205326477 0.01518594642 0)
(-0.01954954117 0.006047465965 0)
(-0.01663409828 -0.001810097224 0)
(-0.01354268107 -0.008386708711 0)
(-0.01048255729 -0.0136392249 0)
(-0.007631618045 -0.01746739533 0)
(-0.005139731703 -0.0197287169 0)
(-0.003111604266 -0.02029233318 0)
(-0.001601774933 -0.01904465926 0)
(-0.0006198850136 -0.0159194144 0)
(-0.0001176816063 -0.01092513691 0)
(1.700055065e-05 -0.004172860656 0)
(0.0004390657847 0.03719556369 0)
(-0.002106488185 0.0759882727 0)
(-0.008023632665 0.08916602535 0)
(-0.01545890458 0.08864855678 0)
(-0.02239524348 0.08143786848 0)
(-0.02794254871 0.07135799186 0)
(-0.03164173263 0.06016806023 0)
(-0.03336943456 0.0488021288 0)
(-0.03322390346 0.03777989311 0)
(-0.03147258314 0.02740229016 0)
(-0.02849867373 0.017884657 0)
(-0.02469145357 0.009325943282 0)
(-0.02042582583 0.001744707768 0)
(-0.01605863713 -0.004822656377 0)
(-0.01189612616 -0.01029223066 0)
(-0.008184514623 -0.0145178515 0)
(-0.005097268591 -0.01730986374 0)
(-0.002745158944 -0.0184696609 0)
(-0.001135031041 -0.01783356835 0)
(-0.0002316047237 -0.01526833534 0)
(9.48408238e-05 -0.01070683266 0)
(4.922264286e-05 -0.004185491709 0)
(0.0001136386131 0.0357524689 0)
(-0.004700987245 0.07051273939 0)
(-0.0132342589 0.08150380192 0)
(-0.02289494568 0.08058431933 0)
(-0.03155443939 0.07446351503 0)
(-0.03830860228 0.06623516625 0)
(-0.04272252505 0.05718166142 0)
(-0.04466480814 0.0479823617 0)
(-0.04423430453 0.03895482727 0)
(-0.04169027337 0.03020751641 0)
(-0.0375005531 0.02187844652 0)
(-0.03218339825 0.01406195835 0)
(-0.02624126572 0.006778970659 0)
(-0.02019469986 0.0001101873157 0)
(-0.01450171319 -0.005794877431 0)
(-0.009531724595 -0.01070271572 0)
(-0.005525909633 -0.01432946925 0)
(-0.002606747936 -0.01637392762 0)
(-0.0007564415191 -0.01658376522 0)
(0.0001481472473 -0.0147427215 0)
(0.0003225436709 -0.01068115629 0)
(8.721304372e-05 -0.004319680042 0)
(-0.0003529548453 0.03264917684 0)
(-0.007822387275 0.06236287117 0)
(-0.01933949801 0.07121541228 0)
(-0.03151024655 0.07036886159 0)
(-0.0422310829 0.06583983159 0)
(-0.05058253876 0.05994802545 0)
(-0.05612145069 0.05351404838 0)
(-0.0586590632 0.04699391134 0)
(-0.05831955871 0.0405292695 0)
(-0.05523525266 0.03395677676 0)
(-0.04988958608 0.02725704055 0)
(-0.04296317702 0.02050124402 0)
(-0.03505614806 0.01367188795 0)
(-0.02688590131 0.0068760417 0)
(-0.01911821866 0.0003361260541 0)
(-0.01232876953 -0.005581904814 0)
(-0.006905343124 -0.01043129201 0)
(-0.003014772617 -0.01375783375 0)
(-0.0006578285333 -0.01513669873 0)
(0.0004189454182 -0.01425868998 0)
(0.0005277988424 -0.01082294766 0)
(0.0001282337498 -0.004584356928 0)
(-0.0009313725405 0.02755016484 0)
(-0.01144425458 0.05131367386 0)
(-0.0260451401 0.05800494773 0)
(-0.0410268429 0.05768900398 0)
(-0.0541702256 0.05516747553 0)
(-0.06460053846 0.0520521285 0)
(-0.07179768112 0.04873526439 0)
(-0.07536254474 0.04541553422 0)
(-0.07568237144 0.04211045829 0)
(-0.07258626081 0.03838240473 0)
(-0.06633902628 0.03393561721 0)
(-0.05790557723 0.02876714557 0)
(-0.04788856842 0.02276155271 0)
(-0.03720506855 0.01599343055 0)
(-0.02675959534 0.008721961163 0)
(-0.01743387011 0.001469741666 0)
(-0.009881684394 -0.005070896219 0)
(-0.00442091103 -0.01019131301 0)
(-0.001095891402 -0.01320805677 0)
(0.0004401100778 -0.01364267137 0)
(0.0006566712043 -0.01104240789 0)
(0.000166793824 -0.004957098249 0)
(-0.001579596393 0.02028600643 0)
(-0.01524391648 0.03704995602 0)
(-0.03298580521 0.04177512445 0)
(-0.05089201695 0.04229267356 0)
(-0.06676817253 0.04204491132 0)
(-0.07982501136 0.04204990497 0)
(-0.08944907367 0.04243060628 0)
(-0.09423767195 0.04285622441 0)
(-0.09576955967 0.0430647104 0)
(-0.09363472016 0.04292096912 0)
(-0.08701465828 0.04156956992 0)
(-0.07745876337 0.03874842279 0)
(-0.06546240866 0.03421613716 0)
(-0.05209359822 0.02792191017 0)
(-0.03845645212 0.0200551074 0)
(-0.02581001804 0.01125161946 0)
(-0.0152322203 0.002522335773 0)
(-0.007365182267 -0.005032773227 0)
(-0.002387993071 -0.01034862345 0)
(4.548716856e-05 -0.01260201089 0)
(0.0006456794468 -0.01117457922 0)
(0.0001959322017 -0.005387057822 0)
(-0.002238561546 0.01084132729 0)
(-0.01883976605 0.01967518945 0)
(-0.03952494604 0.02258378735 0)
(-0.06023715559 0.02410732583 0)
(-0.07885246231 0.02620436783 0)
(-0.09462098845 0.02938264632 0)
(-0.1068462146 0.03353535844 0)
(-0.1148689342 0.0382130073 0)
(-0.11824912 0.0427531366 0)
(-0.1170969267 0.04696576162 0)
(-0.1112125666 0.04959203831 0)
(-0.1011918773 0.05006017897 0)
(-0.08773050026 0.04790464311 0)
(-0.07192133164 0.04288651723 0)
(-0.05492026326 0.03494098072 0)
(-0.03831555745 0.0246412867 0)
(-0.02375654313 0.01331580095 0)
(-0.01244010041 0.002591283195 0)
(-0.004888589562 -0.005897227784 0)
(-0.0009292509954 -0.01069506281 0)
(0.0004493423047 -0.01098189992 0)
(0.0002127638074 -0.005793930689 0)
(-0.002793803751 -0.0005775823851 0)
(-0.02182268707 -0.0004231734145 0)
(-0.04497807081 0.0007432163493 0)
(-0.06814715149 0.003323430862 0)
(-0.08930660837 0.007725884608 0)
(-0.1077635092 0.01405077016 0)
(-0.1227582868 0.02203090509 0)
(-0.1336059307 0.03112887302 0)
(-0.1397393443 0.04065577561 0)
(-0.1408740544 0.04977875821 0)
(-0.1367741596 0.05732860325 0)
(-0.1274130865 0.06213128249 0)
(-0.1133902014 0.06335441976 0)
(-0.09594845541 0.06067349999 0)
(-0.07605979203 0.0536305014 0)
(-0.05536081201 0.04236737236 0)
(-0.03609941192 0.028346521 0)
(-0.02022423673 0.01375032902 0)
(-0.008990820199 0.001050883915 0)
(-0.002637593297 -0.007355188754 0)
(-9.105153297e-06 -0.01013065425 0)
(0.0002187737382 -0.006070111424 0)
(-0.003115759907 -0.01346061049 0)
(-0.02371128506 -0.02256325914 0)
(-0.04852672066 -0.0231509504 0)
(-0.07341750982 -0.01958070422 0)
(-0.0964509371 -0.01302908213 0)
(-0.1169935066 -0.003730144603 0)
(-0.1343017143 0.007939531721 0)
(-0.1477487755 0.02135569197 0)
(-0.1568185748 0.03575226555 0)
(-0.161188266 0.05021018746 0)
(-0.1602826435 0.06371530946 0)
(-0.153130321 0.07420171288 0)
(-0.1396840999 0.07973321242 0)
(-0.1218859355 0.08041784313 0)
(-0.1004542717 0.07564942269 0)
(-0.07643486918 0.06461871736 0)
(-0.0524449589 0.04843138247 0)
(-0.03119509529 0.02960459648 0)
(-0.0150922363 0.01158741426 0)
(-0.005235703033 -0.001868491332 0)
(-0.0007855378161 -0.008174329962 0)
(0.0002148489577 -0.006087557777 0)
(-0.003105060409 -0.02702413632 0)
(-0.02412148488 -0.0457399035 0)
(-0.04951041063 -0.04818560878 0)
(-0.0750834334 -0.0437577469 0)
(-0.09895816098 -0.0352635882 0)
(-0.1205405759 -0.0232592294 0)
(-0.1391312746 -0.00823244038 0)
(-0.1541794623 0.009082426985 0)
(-0.1652260175 0.02781783535 0)
(-0.1718126253 0.04700848498 0)
(-0.1742378294 0.0653939756 0)
(-0.1718733927 0.08274389629 0)
(-0.1628653964 0.09545988833 0)
(-0.1460258427 0.1005256794 0)
(-0.1251082923 0.09951283681 0)
(-0.09967157131 0.09058908102 0)
(-0.07207341945 0.07368863917 0)
(-0.04547294421 0.05108071221 0)
(-0.02355379074 0.02690548604 0)
(-0.008938514993 0.006700889285 0)
(-0.001901501961 -0.004641907984 0)
(0.0001924135542 -0.00570384212 0)
(-0.002735047131 -0.04030293555 0)
(-0.02291009362 -0.06881641871 0)
(-0.04767939999 -0.07329391193 0)
(-0.07288559193 -0.06818671969 0)
(-0.09661811901 -0.05795681065 0)
(-0.1183216066 -0.04350501711 0)
(-0.1373720579 -0.02543240195 0)
(-0.1533090585 -0.004591591424 0)
(-0.1657572111 0.018023743 0)
(-0.1743445264 0.04133825912 0)
(-0.1785753516 0.06414160748 0)
(-0.179201771 0.08530597065 0)
(-0.1754206118 0.1049269424 0)
(-0.1645868506 0.1187124677 0)
(-0.145972515 0.1229001228 0)
(-0.1218121798 0.1182436216 0)
(-0.09296712192 0.1030182247 0)
(-0.06238833975 0.07833015864 0)
(-0.03451882322 0.0480209681 0)
(-0.01406552256 0.01951676396 0)
(-0.003420015938 0.001012422086 0)
(0.0001309647632 -0.004704913803 0)
(-0.002075781951 -0.05248117472 0)
(-0.01992189236 -0.09036277184 0)
(-0.04307958919 -0.0974138234 0)
(-0.06690653364 -0.09190616417 0)
(-0.08956133359 -0.08019717036 0)
(-0.1104799547 -0.06361630578 0)
(-0.1291325379 -0.04289827082 0)
(-0.145193298 -0.01901068165 0)
(-0.1584581936 0.006983417792 0)
(-0.1687348798 0.0340224162 0)
(-0.175773203 0.06102224587 0)
(-0.1791837828 0.08623802222 0)
(-0.1779682176 0.109434158 0)
(-0.1719858919 0.1299792749 0)
(-0.1595769487 0.1431556175 0)
(-0.1389166708 0.1446686229 0)
(-0.1118992039 0.1339100607 0)
(-0.08006904002 0.1101223143 0)
(-0.04761186461 0.07533814221 0)
(-0.02088363294 0.03766534953 0)
(-0.005471179973 0.009473067314 0)
(7.670923073e-06 -0.002868179025 0)
(-0.00101289357 -0.06237227641 0)
(-0.01544811637 -0.1094720604 0)
(-0.03590711087 -0.1195196003 0)
(-0.05736947999 -0.1139864048 0)
(-0.0779623454 -0.1010950637 0)
(-0.09707183129 -0.0827541595 0)
(-0.1142352293 -0.05989679943 0)
(-0.1292649646 -0.03365770187 0)
(-0.1421640152 -0.005184903639 0)
(-0.1529938627 0.02456564786 0)
(-0.1617025218 0.05486306778 0)
(-0.1680059107 0.0849572573 0)
(-0.1711359244 0.1129441147 0)
(-0.169810078 0.1374602405 0)
(-0.1626104249 0.1566296875 0)
(-0.1480114949 0.1669714048 0)
(-0.1253607881 0.1630345892 0)
(-0.09559125623 0.1436699601 0)
(-0.06143303832 0.1078715867 0)
(-0.02942397496 0.06189116182 0)
(-0.008205140279 0.02147043812 0)
(-0.0001790679382 8.106578283e-05 0)
(0.00037358361 -0.06881916498 0)
(-0.009835828481 -0.1249807579 0)
(-0.02670027894 -0.1386557245 0)
(-0.04486331224 -0.1335217502 0)
(-0.06262727107 -0.1197666339 0)
(-0.07921735705 -0.09999425141 0)
(-0.09423130638 -0.07543882009 0)
(-0.107582156 -0.0474659122 0)
(-0.1194087371 -0.01740011766 0)
(-0.1299392549 0.0137509327 0)
(-0.1393299682 0.04537554176 0)
(-0.1474757873 0.07712558506 0)
(-0.1538199797 0.1085596493 0)
(-0.1572521246 0.1386240116 0)
(-0.1559060244 0.1647610839 0)
(-0.1476400977 0.1827326399 0)
(-0.1311082656 0.1874472599 0)
(-0.1060109674 0.1754304777 0)
(-0.0735927983 0.1429682048 0)
(-0.03884326431 0.09165405408 0)
(-0.01191749527 0.03814214003 0)
(-0.0004204795937 0.004401320657 0)
(0.001969134939 -0.07215463086 0)
(-0.003744090046 -0.1366289056 0)
(-0.01577635026 -0.1537803242 0)
(-0.03024630238 -0.1497958017 0)
(-0.04471844816 -0.1355877262 0)
(-0.05852159388 -0.1147782738 0)
(-0.07125103163 -0.08894135111 0)
(-0.08286264684 -0.05967826997 0)
(-0.0935130134 -0.02847102884 0)
(-0.1034356881 0.00362372834 0)
(-0.1128374004 0.03605388269 0)
(-0.1217977855 0.06866463707 0)
(-0.1301345207 0.1014874621 0)
(-0.137100454 0.1342884743 0)
(-0.1409414241 0.1656690956 0)
(-0.1389751013 0.1918127855 0)
(-0.128878164 0.2053028221 0)
(-0.1097272119 0.2024210678 0)
(-0.08166082017 0.1771689389 0)
(-0.04761298555 0.1252515742 0)
(-0.01650525462 0.05976848437 0)
(-0.0007975727627 0.01045425187 0)
(0.002862823416 -0.0715310238 0)
(0.00262658692 -0.1426698828 0)
(-0.004307524291 -0.1645371667 0)
(-0.01439462006 -0.162339192 0)
(-0.02531944061 -0.1483881931 0)
(-0.03632285084 -0.127043752 0)
(-0.0469087499 -0.1004669559 0)
(-0.05699349322 -0.07046123739 0)
(-0.06666076551 -0.03863629012 0)
(-0.07603975688 -0.006119540278 0)
(-0.08526464736 0.02653993768 0)
(-0.09446449768 0.05930734512 0)
(-0.1036999593 0.09253040302 0)
(-0.1126959319 0.1266289552 0)
(-0.1203021484 0.161384075 0)
(-0.1240446483 0.1943928742 0)
(-0.1202352119 0.2160270006 0)
(-0.1070473572 0.2228729348 0)
(-0.08436193136 0.207422135 0)
(-0.05391451298 0.1597713794 0)
(-0.02154485239 0.08585171384 0)
(-0.001394979253 0.01850001705 0)
(0.003531686742 -0.06768407656 0)
(0.008800160308 -0.1431326512 0)
(0.007318663459 -0.1702936995 0)
(0.002015007615 -0.1708873991 0)
(-0.005327785166 -0.1578473025 0)
(-0.01355613585 -0.1368879812 0)
(-0.02220875407 -0.1102557276 0)
(-0.03105903147 -0.08008299127 0)
(-0.04006662713 -0.04808203794 0)
(-0.04918568863 -0.01543864536 0)
(-0.05838019044 0.01724013784 0)
(-0.06768248582 0.04986910259 0)
(-0.07722402028 0.08283235202 0)
(-0.08710580929 0.1169395731 0)
(-0.09691083776 0.1530959909 0)
(-0.1048891553 0.1909229498 0)
(-0.1065082219 0.2224779203 0)
(-0.09982519007 0.2360544834 0)
(-0.08206485948 0.2318743424 0)
(-0.05656443254 0.1922465157 0)
(-0.02606315783 0.1145822407 0)
(-0.002321909903 0.02894608913 0)
(0.003970112954 -0.06031495823 0)
(0.01424910656 -0.1378618945 0)
(0.01837270207 -0.1706492609 0)
(0.01813162214 -0.174885191 0)
(0.01500130932 -0.1645849301 0)
(0.009173325108 -0.1443815303 0)
(0.002358788013 -0.1185177763 0)
(-0.005463095387 -0.08886805792 0)
(-0.01408495499 -0.05718447191 0)
(-0.02325675798 -0.02470237908 0)
(-0.03272659104 0.00788924912 0)
(-0.04234387853 0.04037576727 0)
(-0.05215553818 0.07299921208 0)
(-0.06241358227 0.106591418 0)
(-0.07324594798 0.1426122795 0)
(-0.08364959993 0.182219027 0)
(-0.09049005364 0.22321417 0)
(-0.08785550384 0.2457363561 0)
(-0.07641658851 0.2497771555 0)
(-0.05549487757 0.2205930621 0)
(-0.02915005807 0.1439573096 0)
(-0.003480025359 0.04156160529 0)
(0.003941238694 -0.05120568474 0)
(0.0183140421 -0.1272170141 0)
(0.02813586949 -0.1653318679 0)
(0.03352603634 -0.1741148359 0)
(0.03454819445 -0.1675929515 0)
(0.0317516999 -0.1499971992 0)
(0.02662210075 -0.1254639675 0)
(0.01976541788 -0.09704567454 0)
(0.01137782552 -0.06624731776 0)
(0.001923064455 -0.03427693993 0)
(-0.00811095605 -0.001903972773 0)
(-0.01835289674 0.03048732814 0)
(-0.02868122724 0.06290073655 0)
(-0.03931796623 0.09599702695 0)
(-0.05068402272 0.1315125278 0)
(-0.06249223178 0.1718515576 0)
(-0.07226837887 0.2170582542 0)
(-0.07391172909 0.2512989434 0)
(-0.06802001788 0.2614066234 0)
(-0.05135244789 0.243489634 0)
(-0.03023595804 0.171620613 0)
(-0.004743778672 0.05597866904 0)
(0.003498848569 -0.04083521658 0)
(0.0206462691 -0.1116533555 0)
(0.03608265731 -0.1541088466 0)
(0.04701451924 -0.1689271897 0)
(0.05277458553 -0.1658920919 0)
(0.05368872378 -0.1532064115 0)
(0.05056594224 -0.1311415928 0)
(0.04471718917 -0.1047357451 0)
(0.0364995968 -0.07545322077 0)
(0.02660651335 -0.04442212916 0)
(0.01576818794 -0.01246648972 0)
(0.0045934118 0.01983653523 0)
(-0.006586822065 0.05218250356 0)
(-0.01785941978 0.08488090799 0)
(-0.02978870297 0.1196497267 0)
(-0.04267168432 0.1599534601 0)
(-0.05415761572 0.2079818647 0)
(-0.05901150507 0.2526403437 0)
(-0.05588971226 0.2703024138 0)
(-0.04509627432 0.2606026154 0)
(-0.02924048626 0.1957594309 0)
(-0.005938405453 0.07149032146 0)
(0.002836472046 -0.03027525145 0)
(0.02104781175 -0.09224958245 0)
(0.04140008521 -0.1370030488 0)
(0.05797619456 -0.158096431 0)
(0.06918127033 -0.1606208229 0)
(0.07399431496 -0.1525705052 0)
(0.07383248428 -0.1351933399 0)
(0.06926108567 -0.1119048216 0)
(0.06128570121 -0.08490303669 0)
(0.05085495485 -0.05531855072 0)
(0.03901029045 -0.02405291303 0)
(0.02663512235 0.008104666653 0)
(0.01428202909 0.04052229815 0)
(0.002055121318 0.07308065631 0)
(-0.01060212237 0.107254165 0)
(-0.0243599671 0.1472858492 0)
(-0.03659112349 0.1971082455 0)
(-0.04289929938 0.2496839692 0)
(-0.04267795516 0.2750941571 0)
(-0.03643289359 0.2722240097 0)
(-0.02616048879 0.2150826824 0)
(-0.006870679962 0.08691914739 0)
(0.002151546572 -0.02041781091 0)
(0.01972799921 -0.07069887044 0)
(0.04346081169 -0.1146417928 0)
(0.0656429555 -0.1411090545 0)
(0.08230435064 -0.1506746363 0)
(0.09224682022 -0.1482255367 0)
(0.09556258355 -0.137121276 0)
(0.09290184857 -0.1181976767 0)
(0.08536217784 -0.0945706799 0)
(0.0743566447 -0.06712943681 0)
(0.06135658133 -0.03688845386 0)
(0.04758510852 -0.004975402275 0)
(0.03381980218 0.02760613792 0)
(0.0203703673 0.06026752588 0)
(0.00675223205 0.09409918946 0)
(-0.007980587296 0.1341699159 0)
(-0.02053975545 0.1866282158 0)
(-0.02608362087 0.2442738309 0)
(-0.02754839655 0.2775861508 0)
(-0.02554026162 0.2788752505 0)
(-0.02078653408 0.2289199902 0)
(-0.007252336248 0.1009194386 0)
(0.001683354187 -0.01170563163 0)
(0.01748610894 -0.04901173893 0)
(0.04234645303 -0.08845251464 0)
(0.06902425246 -0.1180858658 0)
(0.09158792823 -0.1345115046 0)
(0.1070044714 -0.1398279981 0)
(0.1146522207 -0.1350601823 0)
(0.1148700126 -0.1235922237 0)
(0.1080368967 -0.1042442847 0)
(0.09637494381 -0.07959653176 0)
(0.08209317211 -0.05084907922 0)
(0.06683415638 -0.01943456131 0)
(0.05155519887 0.01330290814 0)
(0.03677078788 0.04627214133 0)
(0.02207907375 0.08005032265 0)
(0.006364207915 0.1205894119 0)
(-0.005714997399 0.1765004668 0)
(-0.008943273013 0.2386203953 0)
(-0.0108875881 0.2772841523 0)
(-0.01202340983 0.2807598665 0)
(-0.01315461157 0.2368254343 0)
(-0.007021332292 0.1132268149 0)
(0.001821044511 -0.004282265509 0)
(0.01567107663 -0.02908415011 0)
(0.03945671827 -0.06068100282 0)
(0.06844016937 -0.08994827821 0)
(0.09616466172 -0.1120346884 0)
(0.1173330065 -0.1262959627 0)
(0.1299563671 -0.1305392708 0)
(0.1327136783 -0.1254214516 0)
(0.1282959352 -0.1147068155 0)
(0.1161893784 -0.09380082349 0)
(0.1004788488 -0.06655435465 0)
(0.08362421595 -0.03557884315 0)
(0.06675541111 -0.00252541006 0)
(0.05062516054 0.03104076676 0)
(0.03481421956 0.06521445206 0)
(0.01833442199 0.1072714504 0)
(0.008529550082 0.168259235 0)
(0.00945304025 0.2347003246 0)
(0.007627367357 0.2748437626 0)
(0.003499662656 0.2781578317 0)
(-0.003523211948 0.2376696029 0)
(-0.006310420095 0.1193425791 0)
(0.002488849419 0.002698952514 0)
(0.01577959248 -0.01334423829 0)
(0.03718351723 -0.03591480651 0)
(0.06679642319 -0.06051168289 0)
(0.09828501261 -0.08403062871 0)
(0.124145116 -0.1065814479 0)
(0.1405723013 -0.1215839694 0)
(0.1454417311 -0.1246081698 0)
(0.1417969005 -0.1206341237 0)
(0.1313391591 -0.1076419965 0)
(0.11451364 -0.0831346142 0)
(0.09635181194 -0.05302973531 0)
(0.07813202565 -0.01965635676 0)
(0.06090975371 0.01475338757 0)
(0.04406179052 0.04989161311 0)
(0.02770435632 0.09531958768 0)
(0.0234419881 0.1636812159 0)
(0.03006721527 0.2337767879 0)
(0.02804839154 0.2709581232 0)
(0.02154298621 0.2708897017 0)
(0.008216642586 0.2313579682 0)
(-0.004835232719 0.1201726869 0)