/*--------------------------------*- C++ -*----------------------------------*\
  =========                 |
  \\      /  F ield         | OpenFOAM: The Open Source CFD Toolbox
   \\    /   O peration     | Website:  https://openfoam.org
    \\  /    A nd           | Version:  9
     \\/     M anipulation  |
\*---------------------------------------------------------------------------*/
FoamFile
{
    format      ascii;
    class       volScalarField;
    location    "10";
    object      UF6.gas;
}
// * * * * * * * * * * * * * * * * * * * * * * * * * * * * * * * * * * * * * //

dimensions      [0 0 0 0 0 0 0];

internalField   nonuniform List<scalar> 
2215
(
0.4629337458
0.4610066323
0.4558880583
0.4460647861
0.4304428823
0.40850191
0.3802651848
0.3460182117
0.3058750865
0.2592229311
0.2042614362
0.1372565683
0.04969300946
0.01960577707
0.008151578006
0.003557088127
0.001672231309
0.0008941623585
0.0005885805752
0.0005083531067
0.0005560517778
0.0006615705787
0.4645441401
0.4629180469
0.4579824976
0.448000325
0.4318620152
0.409197649
0.3802760345
0.3457119689
0.3059594797
0.2609750649
0.2098114317
0.152132508
0.09133482048
0.05034333245
0.02645071343
0.01365548153
0.007193550871
0.004079444248
0.002678907008
0.002171857262
0.002146260928
0.002317615365
0.4669215472
0.4654140288
0.4603866325
0.4499918067
0.4331592285
0.4096446476
0.379910483
0.3448719783
0.3053919088
0.261843554
0.2145361403
0.1636821802
0.1129667953
0.0715312859
0.04248302194
0.02432514801
0.01391969333
0.008364045076
0.005633300977
0.00450713343
0.00427447808
0.004430776486
0.4696306976
0.4681229788
0.4628918484
0.452010203
0.4344275122
0.4099846227
0.3793114732
0.3436111647
0.3041345076
0.2617449817
0.2169719558
0.1707505609
0.1254390284
0.085852517
0.05530301756
0.03422254007
0.020987159
0.01333014669
0.009288290589
0.007472105761
0.00695915143
0.007055979982
0.4724866584
0.4709329992
0.4654627485
0.4540678909
0.4357064041
0.410286186
0.3785829526
0.3420691236
0.3023204959
0.2605697467
0.2176309852
0.174517564
0.1328336298
0.09550473632
0.06515880546
0.04282434995
0.02783791996
0.01860867311
0.01345017924
0.01098626929
0.01018313027
0.01020546802
0.4754230238
0.4738146954
0.4681012545
0.4561893823
0.437043114
0.4106295296
0.3778488341
0.3404368109
0.3002245467
0.2587533419
0.2170887974
0.1761291149
0.1371490333
0.1020006332
0.07261984307
0.05007212769
0.03420062304
0.02394749224
0.0179544442
0.01496509508
0.01391424027
0.01387204902
0.4784241586
0.4767676273
0.4708187309
0.4583990886
0.4384869337
0.4111139367
0.3773111253
0.3389262876
0.2981304876
0.2566767075
0.215827974
0.1764766049
0.1395866084
0.106403234
0.07829025368
0.05614064556
0.04001526037
0.02922069858
0.02269760343
0.0193480125
0.01812845329
0.01805142677
0.4814927325
0.4797975218
0.4736225664
0.4607132605
0.4400754436
0.4118102566
0.3771010324
0.3377924285
0.2963292219
0.2547257511
0.2143830483
0.1762206468
0.1409781195
0.1095099062
0.08273565672
0.06131641119
0.04536635626
0.03441718515
0.02764766745
0.02411788748
0.02283030457
0.02276263016
0.4846338532
0.4829060627
0.4765120767
0.4631425244
0.4418455732
0.4127786771
0.3772103646
0.3373026836
0.2952618622
0.2533902263
0.2133023434
0.1759559207
0.1419904131
0.1119759985
0.08648453332
0.06594529543
0.05043977196
0.03962403905
0.0328503314
0.02931567507
0.02807020066
0.02806600835
0.4878470599
0.4860864897
0.4794787321
0.4656951378
0.4438479663
0.4141525193
0.3779307398
0.3373680445
0.2949629866
0.2529244756
0.2129712823
0.1762017224
0.1432202531
0.1143984926
0.0900565953
0.07042175158
0.05550474482
0.04501897508
0.03843371809
0.03505272135
0.03395895946
0.0340786655
0.4911225002
0.4893224468
0.4825073456
0.4683787542
0.4461363058
0.4160545638
0.3794831844
0.338591843
0.2958926662
0.2537269621
0.2138988018
0.1775536982
0.145290603
0.1173910264
0.09400676175
0.07520526848
0.0609177091
0.05087363334
0.04461677023
0.04152114357
0.04068158298
0.04098735285
0.4944404608
0.4925906465
0.4855835371
0.4712124172
0.4487817289
0.418625609
0.382088557
0.3412682294
0.2986206099
0.2565027448
0.2167914007
0.1807151654
0.1489175761
0.1216532865
0.09898022386
0.08085650945
0.06714451377
0.05756876017
0.05172242759
0.04900546633
0.04850651949
0.04905714639
0.4977731933
0.4958652777
0.4887017989
0.4742367922
0.4518872354
0.4220478805
0.3860220817
0.3457770671
0.3036318943
0.2618730749
0.2223991098
0.1865213181
0.1549695596
0.1280406589
0.105776904
0.0880885538
0.07479811756
0.06562347459
0.06019006992
0.05789133439
0.0577911615
0.05863484511
0.5010881907
0.4991231282
0.4918732621
0.4775206473
0.4555938648
0.4265518277
0.3916220256
0.3525833212
0.3115346644
0.2706013893
0.2316330197
0.1959960048
0.1645289664
0.1376340513
0.1154204598
0.09782609838
0.08468299554
0.07572222229
0.07059705611
0.06867073577
0.06898158058
0.0701451641
0.5043523598
0.5023468623
0.4951320012
0.4811589777
0.4600790629
0.4324136026
0.3992827957
0.362221567
0.3230291519
0.2835737825
0.2455662855
0.2103708269
0.1789277371
0.151789959
0.1292149529
0.1112584287
0.09783626162
0.08873960276
0.08366354915
0.08195005452
0.08260279075
0.08407720915
0.5075370491
0.5055246933
0.4985370468
0.4852686104
0.465543321
0.4399325309
0.4094184096
0.3752447396
0.338841896
0.3017256446
0.2653629468
0.2310259819
0.1997085862
0.1721259426
0.1487505318
0.1298554583
0.1155434549
0.1057491026
0.1002549207
0.09842974703
0.099237683
0.1009594166
0.5106221032
0.5086731512
0.5021351606
0.4899635556
0.4721735518
0.4493708224
0.4223729225
0.3921012302
0.359567683
0.3258518611
0.2920667844
0.2592756127
0.2284282447
0.2003597414
0.1757859109
0.1552894894
0.1392875995
0.1279866161
0.1213519506
0.1188700499
0.1194913711
0.1213214005
0.5135966681
0.5118056985
0.5059709375
0.4953274974
0.4800798473
0.4608458041
0.4382590389
0.4129087427
0.3853710158
0.3562365876
0.3261697973
0.2958998585
0.2661913804
0.2378870999
0.2119016562
0.189175366
0.1705683989
0.1567288158
0.147967577
0.144030832
0.1439380879
0.1456433821
0.5164505495
0.5149266
0.5100611133
0.5013660005
0.4892059617
0.4741810818
0.4567330166
0.437134147
0.4155546247
0.3921040307
0.366948323
0.3403891154
0.3128524482
0.2850103762
0.2578247924
0.2325363934
0.2105186722
0.193037808
0.1809841014
0.1745709529
0.17304594
0.1742913856
0.5191697539
0.5180222957
0.5143655175
0.5079491732
0.4992317043
0.4887560774
0.4767777029
0.4632931179
0.4481531782
0.4310830206
0.4117827854
0.390114938
0.3660636838
0.339931409
0.3124679433
0.284987537
0.2592866616
0.2373441553
0.2208886562
0.2108908799
0.2070765156
0.2074283555
0.5217353282
0.5210542663
0.5187682247
0.5147776014
0.5095303195
0.5034568721
0.4966526293
0.488920393
0.4799102697
0.4691435616
0.45602109
0.440054316
0.4207961958
0.3980541903
0.3720825085
0.3438755344
0.315298213
0.2889084911
0.2674184285
0.2529053615
0.2459465021
0.2449067102
0.5241221001
0.5239566056
0.5230781845
0.5214061773
0.5192479486
0.5168602742
0.5142204549
0.5110496343
0.506986341
0.5015358186
0.4940386101
0.4838474125
0.4702229031
0.4525109345
0.4303314245
0.4039675823
0.374745553
0.3453072601
0.3191775969
0.299793851
0.28906414
0.286146386
0.5263014212
0.5266446081
0.5270612153
0.5273397421
0.5275268966
0.527643568
0.5276629829
0.5273088676
0.526424593
0.5246355021
0.5214097386
0.5162017384
0.5081874836
0.4964044967
0.4799682344
0.4583918012
0.4318460864
0.4022888413
0.3733726537
0.3497680114
0.3351621696
0.3300132453
0.5282485736
0.5290365942
0.5305083756
0.5321958638
0.5338072629
0.5352209649
0.5363435742
0.5369517824
0.5371504451
0.5369254646
0.5359725177
0.5340630114
0.5307051244
0.5250553392
0.5157036535
0.5009410243
0.4802585537
0.4543519591
0.4259034547
0.3999985526
0.3821738665
0.3747508927
0.5299522386
0.5310823784
0.5333098366
0.5358554496
0.5381044784
0.5398370349
0.5410365518
0.5417581679
0.54211261
0.542230133
0.5421187238
0.5416336938
0.5405867942
0.5385365978
0.5347000888
0.5276880652
0.5153806019
0.4962046201
0.4720149548
0.4468341927
0.4273187662
0.4180500579
0.5314155056
0.532770952
0.5354655225
0.5384365732
0.5408253973
0.542405547
0.5433179271
0.5437780177
0.5439990937
0.5441028834
0.5441412621
0.5441384901
0.5440017709
0.5435524842
0.5424747055
0.5399998202
0.5348020442
0.5247359245
0.5076121109
0.4864465302
0.4675028001
0.4573226795
0.5326525789
0.5341222972
0.5370480285
0.5401675415
0.5424713894
0.5437010116
0.5442411688
0.5444363994
0.5444908943
0.5445106046
0.5445556332
0.5446522177
0.5447840898
0.5448822803
0.5448962094
0.5444238775
0.5429317229
0.5389995274
0.5305260951
0.515947353
0.5000010786
0.4902013129
0.5336852722
0.535175812
0.5381617498
0.5412873521
0.5433463368
0.5442312317
0.5444845667
0.5444974287
0.5443807984
0.5443219227
0.5443156284
0.5444347256
0.5446902551
0.545012212
0.5453442804
0.5455278763
0.5455452337
0.5446108891
0.5415578466
0.5343999439
0.5232772963
0.5151377834
0.5345375926
0.5359741961
0.5388926056
0.5419252537
0.5437387466
0.5443923298
0.5444973981
0.5443397077
0.5440336828
0.5438396168
0.5437675416
0.5437878971
0.544012749
0.5444224935
0.5449887917
0.5456161156
0.5460686975
0.5462572736
0.5457092636
0.5432230744
0.5375584101
0.5318842928
0.5352333062
0.5365590693
0.5393113024
0.5421785503
0.5438477696
0.5443996055
0.5444402945
0.5441188808
0.5437206651
0.5434216185
0.5432802286
0.5432472907
0.5433693392
0.5436999102
0.544235453
0.5449732073
0.5458445648
0.546544311
0.5468500964
0.5465138631
0.5445151854
0.5415163155
0.5357997547
0.5369615135
0.5394739496
0.5421512133
0.5438097407
0.5443621715
0.5443499581
0.5439719877
0.5435259403
0.5431612186
0.5429454119
0.5428699738
0.5429131857
0.5431574238
0.5436189738
0.5443048095
0.5451879138
0.5461913045
0.5470291609
0.547398836
0.5471715256
0.5460911393
0.5362504022
0.5372264623
0.5394541089
0.5420016613
0.5436738651
0.544280123
0.5442794177
0.5439119532
0.543458761
0.5430635866
0.5427801075
0.5426340045
0.5426051411
0.5427528772
0.543133278
0.5437761364
0.544650042
0.5456644273
0.546699338
0.54753199
0.5478917737
0.5478093356
0.5365968157
0.5374003545
0.5393491177
0.5416819544
0.5433810288
0.5441290085
0.5442163869
0.5439138726
0.5434856835
0.543082102
0.5427588071
0.5425409877
0.5424399229
0.5424774147
0.5427563827
0.5433343332
0.5442026667
0.5452570031
0.5463273194
0.5473027547
0.5479904254
0.5482467261
0.5368490795
0.537494027
0.5391209149
0.5412298082
0.542943942
0.5438626623
0.5440997721
0.5439226306
0.543557989
0.5431668067
0.5428264873
0.5425532954
0.5423772658
0.5423190524
0.5424870044
0.5429833727
0.5438288874
0.5449156041
0.5460469426
0.5470565401
0.5478640555
0.548260801
0.5370419637
0.537529029
0.5388209306
0.5406783408
0.5423662629
0.5434496849
0.5438927492
0.5438720122
0.5436417881
0.5432912781
0.5429460971
0.5426367445
0.542382807
0.5422438104
0.5423062194
0.542716656
0.5435333604
0.5446491954
0.5458302867
0.546885413
0.5477124746
0.5481345746
0.5372822554
0.5375893331
0.5385018467
0.5400570796
0.541651263
0.5428573158
0.5435222031
0.5437127073
0.543617476
0.543373425
0.543059949
0.5427389446
0.542440629
0.5422163319
0.5421900324
0.5425188628
0.5433066366
0.5444553359
0.5456916159
0.546783803
0.5476339218
0.5480576857
0.537777796
0.5378130553
0.5383220056
0.5394264108
0.540824086
0.5420718084
0.5429316555
0.5433670667
0.5434557824
0.5433441998
0.543102302
0.5428037334
0.542481971
0.5422079931
0.5421145437
0.5423768
0.5431474086
0.5443519448
0.5456262288
0.5467385006
0.5476017463
0.5480357608
0.5388528303
0.5384906892
0.5385304258
0.5390400529
0.5400088292
0.5411255969
0.5420916615
0.5427480187
0.5430847975
0.5431421826
0.5430314249
0.5427876186
0.5424823867
0.5421841954
0.5420588065
0.5422763256
0.5430652403
0.544313586
0.5456088931
0.5467284331
0.5475954266
0.5480444591
0.5408557028
0.5401193486
0.5394182414
0.539355008
0.5397032127
0.5403630398
0.5411577069
0.5418945681
0.542431409
0.5427125095
0.5427540503
0.5426477128
0.5423996927
0.5421139331
0.5419979915
0.5422261804
0.5430386463
0.5443390183
0.5456762317
0.5467843946
0.5476313184
0.5480939791
0.5436314355
0.542772925
0.5415817003
0.5406477842
0.5402919973
0.5404290324
0.540765984
0.5412201955
0.5417256193
0.5421278068
0.5423308953
0.5423263844
0.5422117928
0.5419884134
0.5419282125
0.5422104045
0.5431085233
0.5445111984
0.545864304
0.5469303673
0.5477268904
0.5481780343
0.5457694062
0.5451378558
0.5440303632
0.5430167425
0.542131951
0.5413744472
0.5411289595
0.5412279128
0.5414395977
0.5416997741
0.541927359
0.5420045381
0.5419637111
0.5418463851
0.5418776289
0.5422635263
0.5433211145
0.5447954171
0.5461360816
0.5471369532
0.5478646081
0.548287229
0.5454615735
0.5449257524
0.5437820829
0.5431937844
0.5429464267
0.5426412371
0.5422410488
0.5417530608
0.541604283
0.541667009
0.5417629182
0.5418042724
0.5417857112
0.5417450277
0.5418700895
0.5424365258
0.5436986632
0.5452162408
0.5465163281
0.5474190997
0.5480471271
0.5484265735
0.5418480703
0.5402121064
0.5383372319
0.5381412537
0.5391549082
0.5408605141
0.5418743264
0.5421610866
0.5421092576
0.5418715184
0.5418087111
0.5417756745
0.5417192082
0.5417376182
0.5419925052
0.5428044549
0.5442445224
0.5457619257
0.5469840329
0.5477569534
0.548267424
0.5485912424
0.5353191688
0.5332124791
0.5319990277
0.531620363
0.5320712428
0.5342035619
0.5386583656
0.5412738522
0.5420892664
0.542218163
0.5420255406
0.5418412996
0.5417448958
0.5418180611
0.5422811464
0.5434038008
0.5449263543
0.546411772
0.5475107162
0.5481216334
0.5485066936
0.5487716236
0.5316646357
0.531358049
0.5308931727
0.5303180018
0.5298292619
0.5300793133
0.5320730785
0.5379596817
0.5412134512
0.542152017
0.5422789552
0.5420464124
0.541865849
0.5420315345
0.5427324693
0.5441450238
0.5457161256
0.5471398614
0.5480492466
0.5484654529
0.5487308411
0.5489469298
0.5319343317
0.5326822131
0.5325168085
0.5317841622
0.530396019
0.5292604299
0.5294950073
0.5318693595
0.5381495076
0.5414917454
0.5422730369
0.5423003601
0.5421489705
0.5424239141
0.5434058533
0.5450079649
0.5466165611
0.5478986877
0.5484993649
0.5486467409
0.5488427964
0.5490682746
0.5350551032
0.5360418318
0.5358056954
0.5347621028
0.5327230519
0.5302524355
0.5292519424
0.5299782311
0.5334835526
0.5395505512
0.5419461014
0.5424292249
0.5424956226
0.5429393755
0.544333494
0.5461260677
0.54766219
0.5485782197
0.5487116074
0.5486832327
0.5488484791
0.5491021159
0.5394876195
0.5400387078
0.5395669871
0.5381314273
0.5353947182
0.5316125345
0.529361656
0.5298390995
0.5320084545
0.5372671542
0.5410712967
0.5423429687
0.5427194792
0.5435971844
0.5457967497
0.5475372493
0.5486052167
0.5489015955
0.5487182772
0.5483955136
0.548587272
0.548959648
0.5435259328
0.5434359816
0.5428667097
0.5409079503
0.5383506368
0.5333506464
0.5301506815
0.5307434513
0.5324502274
0.5365237972
0.5402930467
0.5421240637
0.5428543745
0.5449591567
0.5476502191
0.548506816
0.5490196955
0.5488778726
0.5483393887
0.5476318598
0.5479163735
0.548570836
0.5466185786
0.5463060481
0.5452691663
0.5439910651
0.5426247376
0.5376044528
0.5220922261
0.5329076857
0.5345682736
0.5371421718
0.5402808158
0.5421268411
0.5433144052
0.5469127527
0.54867006
0.5484345129
0.5480751788
0.5470448964
0.5464526926
0.5454688138
0.5462861457
0.5473916503
0.5490985034
0.5485794498
0.5474474546
0.5465279376
0.545238788
0.5393067508
0.521661769
0.5364652766
0.5376771635
0.5393615615
0.5411657735
0.5427092737
0.5450337413
0.5492749948
0.5492708568
0.5377458521
0.5371136749
0.5361039985
0.5355236387
0.5345594375
0.5353604228
0.5364438173
0.5511183447
0.5503226395
0.549388467
0.5485309888
0.5469024573
0.5267263662
0.5081400399
0.5287158485
0.5406012087
0.5424588298
0.5436797389
0.5450439067
0.5485873709
0.5505399394
0.5503171313
0.5392997821
0.5250803699
0.514366034
0.5176333848
0.5218271241
0.5108774925
5.517645826e-05
0.5526515797
0.5519789143
0.551250334
0.5506289181
0.5484674524
0.5310513382
0.5128730185
0.5172072328
0.5321671686
0.5455271001
0.5472875283
0.5486550051
0.5508165989
0.5507768855
0.5397609027
0.5193911926
0.5058862663
0.4949609896
0.005112527523
0.0001067654976
5.651276659e-06
6.005542446e-09
0.553802293
0.5531259239
0.5526088279
0.552077608
0.5483758606
0.531470362
0.5141537174
0.5090167922
0.5245456184
0.5366823807
0.5495292475
0.5511492772
0.5513134623
0.5511048611
0.5400800756
0.5201536004
0.5075783089
0.4959897341
0.004229667479
2.874309565e-07
2.54114242e-10
6.75426463e-13
0.5544357721
0.5539801096
0.5536712959
0.5530805888
0.5376606161
0.5225837187
0.5063598498
0.4927644845
0.4998285297
0.509762569
0.5391231857
0.5510071784
0.5510558221
0.5507890029
0.537164853
0.5229690395
0.5110803981
0.4832011916
0.001202784112
7.497589411e-08
5.503312979e-12
7.104231319e-16
0.5548295172
0.5544766901
0.5542172594
0.5535055527
0.5405285029
0.5263431665
0.5104167799
0.4956772548
0.4897377328
0.4996311911
0.5274656074
0.5397085912
0.5399612657
0.5397099939
0.5260432381
0.5102937205
0.4981151429
0.3133082623
0.0001535455445
9.436274209e-09
7.148644947e-13
8.390208945e-17
0.5548648334
0.5546764317
0.5544238251
0.5428098624
0.5311328453
0.5174067078
0.5014509112
0.4847395433
0.478010794
0.489633464
0.5164447816
0.5289126147
0.5291349655
0.5285420303
0.5154517395
0.499670716
0.3235520938
0.003291229503
2.471154108e-07
1.621600492e-11
1.252939943e-15
1.085616431e-19
0.5546261357
0.5546908077
0.5545281013
0.54274917
0.5317478168
0.5100491018
0.4894674686
0.4168484521
0.389468915
0.4446536835
0.4688348398
0.4731712301
0.5139426947
0.5060602064
0.3163944565
0.07049326469
0.003053115934
8.556647642e-07
1.346420215e-10
1.059960547e-14
8.786785427e-19
6.380029061e-23
0.5540092325
0.5543216285
0.5542603981
0.5430422231
0.5321786853
0.5203473076
0.00183368564
0.01215917967
0.2350406783
0.3953810878
0.437973454
0.4179777127
0.3365924892
0.05056961988
0.003808446631
8.435807082e-05
1.990300919e-07
2.242690728e-10
3.841938382e-14
4.008482556e-18
3.859963444e-22
2.09291819e-26
0.5530702421
0.5537440089
0.5537223164
0.5426246057
0.5317707714
0.5095198936
0.0006395922046
6.998762947e-05
0.01519582707
0.1262359018
0.2069209033
0.2055130867
0.008973438039
0.0004241333053
2.283235597e-05
2.00670681e-07
1.672458519e-10
6.403410891e-14
1.054278191e-17
1.356967055e-21
1.449583737e-25
6.136120788e-30
0.5518077417
0.5528054002
0.5528237631
0.5417638385
0.5309264781
0.03836373915
2.817940207e-05
0
0
0.001072921101
0.007137589582
0.001396188938
0.0001957995362
8.864111199e-06
1.58338686e-07
6.567097047e-10
4.31520134e-13
8.35627296e-17
9.589584588e-21
1.065688441e-24
9.163780633e-29
2.874014483e-33
0.5501938476
0.5516043108
0.5516810742
0.5406473533
0.5231645427
0.02448252802
0
3.601045938e-10
0
9.970984006e-06
0.0001180237114
8.97499955e-06
2.221612181e-06
1.131512391e-07
1.019667613e-09
2.133079662e-12
1.12288831e-15
2.103336518e-19
2.267366835e-23
2.171716229e-27
1.241278126e-31
1.797069616e-36
0.5483075698
0.5499059122
0.5501250085
0.5391225081
0.5170920331
0.006848097903
4.814224726e-07
0
9.607954136e-10
8.607527584e-08
1.190085813e-06
8.321361331e-08
2.232067918e-08
9.219231743e-10
4.733511942e-12
6.146602106e-15
2.752584892e-18
4.632580066e-22
4.94469203e-26
4.000177159e-30
1.71940934e-34
1.990941094e-39
0.5462407572
0.5483716783
0.5485455724
0.5375746609
0.4714355087
0.003229470135
6.24012471e-07
0
7.005237842e-12
8.164010833e-10
1.084632026e-08
7.935600747e-10
2.025468084e-10
5.740067927e-12
1.796132153e-14
1.670230537e-17
6.384470784e-21
9.063079386e-25
8.850145132e-29
5.131673987e-33
8.69746139e-38
1.567854518e-43
0.5433711132
0.5461496375
0.5461624876
0.5352392378
0.4364967275
0.0005309498326
0
1.862201691e-10
0
8.043133015e-12
9.84062682e-11
7.609231874e-12
1.960247234e-12
3.288099398e-14
6.436118733e-17
4.318783415e-20
1.279243264e-23
1.485809203e-27
1.125999198e-31
4.330231975e-36
5.022677193e-41
3.760715901e-47
0.5392392275
0.5417029432
0.5419841118
0.5311444295
0.1866396389
0.0001097040311
7.418546659e-09
0
1.700060487e-15
9.845438347e-14
9.652926669e-13
6.920415661e-14
6.091434953e-15
1.060439695e-16
1.543431434e-19
7.615680721e-23
1.607472789e-26
1.463062705e-30
6.95780246e-35
8.70010965e-40
5.627855508e-46
6.730522051e-52
0.5366880944
0.5383772367
0.5386050187
0.5278329183
0.1185694912
4.41973469e-05
0
1.001296568e-12
2.009535983e-16
4.25419924e-16
2.838882596e-15
3.460116234e-16
5.446663716e-18
2.154982211e-19
2.327108658e-22
8.204202054e-26
1.180444073e-29
7.477647947e-34
2.082214882e-38
1.696781085e-43
1.056778255e-48
1.110166944e-53
0.5332083306
0.5336470997
0.5338823001
0.523204654
0.01645452869
1.000919113e-06
1.206211122e-11
2.448607857e-15
2.075178329e-18
2.914757094e-19
3.422537507e-18
1.20025875e-18
9.849059746e-21
2.750778169e-22
2.210578952e-25
5.479168327e-29
5.065993698e-33
2.04958716e-37
2.949188162e-42
1.914772807e-47
2.36408446e-52
3.834466972e-57
0.5276584879
0.5288650431
0.5291671316
0.5185837889
0.0006879535385
2.224643132e-07
9.522885942e-11
4.080245299e-14
2.859364568e-17
2.093272308e-20
7.111642851e-21
2.889964079e-21
1.604703478e-23
2.210485569e-25
1.280999318e-28
2.126397509e-32
1.141720055e-36
1.636002309e-41
1.156325772e-46
1.531286728e-51
2.025845608e-56
2.770807515e-61
0.5240062282
0.5255231797
0.5257768981
0.5152613601
0.0003303661647
2.04789843e-07
1.369635696e-10
9.67778498e-14
8.179900885e-17
6.865121921e-20
6.973698957e-23
4.566041797e-24
1.747805755e-26
1.067037541e-28
4.115379547e-32
4.029683111e-36
9.429094933e-41
7.512393612e-46
9.177121493e-51
1.213374603e-55
1.594181999e-60
2.733391642e-65
0.5217146748
0.5217401795
0.521900637
0.5114626242
0.0003305948297
2.869057823e-07
2.399870014e-10
1.982432682e-13
1.707229525e-16
1.379135233e-19
9.88191095e-23
6.118822739e-26
3.375135692e-29
3.378731861e-32
7.120355838e-36
4.022544332e-40
8.81827742e-45
1.356016837e-49
1.895983168e-54
2.307164271e-59
2.739419558e-64
4.751978305e-69
0.5197059652
0.5197971507
0.5195513867
0.509160359
0.0006518834477
7.166798544e-07
6.72758925e-10
5.729886052e-13
4.662165349e-16
3.336323903e-19
1.961562521e-22
8.587783468e-26
2.536022466e-29
4.637118894e-33
3.65028018e-37
3.515540587e-42
2.677722346e-47
4.04097796e-52
5.489503795e-57
6.354131811e-62
6.90762074e-67
1.124403758e-71
0.517760924
0.515554929
0.515376773
0.5050692375
0.0006343342764
8.108078433e-07
8.313620696e-10
7.158725471e-13
5.554900708e-16
3.607205358e-19
1.821514009e-22
6.442168588e-26
1.405310504e-29
1.459979479e-33
5.110167439e-38
1.017458191e-42
1.66152471e-47
2.586613503e-52
3.591839553e-57
4.14898542e-62
4.242688646e-67
6.951718518e-72
0.516377889
0.5130626711
0.5127066348
0.5024525021
0.0005974096424
8.174298579e-07
9.034541756e-10
7.887180244e-13
6.028785542e-16
3.765738309e-19
1.778463016e-22
5.716548816e-26
1.141586192e-29
1.263030913e-33
4.641059489e-38
3.845096358e-43
6.500075218e-48
1.047513278e-52
1.495440236e-57
1.735588248e-62
1.619009048e-67
2.533553575e-72
0.5118629244
0.5085839296
0.5082987154
0.4981327411
0.0009603093334
2.059468051e-06
2.40567381e-09
2.236536942e-12
1.716953489e-15
1.072394973e-18
5.333360856e-22
1.77003674e-25
3.440867802e-29
4.361415078e-33
2.887306873e-37
5.119324826e-42
9.221553112e-47
1.536863255e-51
2.255611032e-56
2.666110341e-61
2.342201622e-66
3.416394142e-71
0.5088264475
0.506691269
0.5061596246
0.4960364321
0.0007532922695
1.339254783e-06
1.619909964e-09
1.491632281e-12
1.16016792e-15
7.359352814e-19
3.620061895e-22
1.174074971e-25
2.128370106e-29
1.427778074e-33
1.888789746e-38
3.475298014e-43
6.277643055e-48
1.103064446e-52
1.662393523e-57
1.981592393e-62
1.840354919e-67
2.631111998e-72
0.5073343784
0.5033527189
0.5023966857
0.492348752
0.0006426065074
9.913871311e-07
1.218605674e-09
1.088109521e-12
8.565068241e-16
5.521720072e-19
2.623528932e-22
8.226726927e-26
1.90903242e-29
2.302785066e-33
3.281902975e-38
6.210924871e-43
1.154868809e-47
2.054785855e-52
3.170979014e-57
3.813939186e-62
3.48186272e-67
4.644708848e-72
0.5057053613
0.4970047925
0.495745957
0.4858310379
0.0004275794718
5.706454722e-07
6.965769875e-10
6.205824969e-13
4.922600065e-16
3.218024588e-19
1.549079241e-22
5.119575551e-26
1.257469822e-29
1.969433235e-33
1.105746948e-37
2.145267582e-42
4.091433904e-47
7.497805041e-52
1.184931197e-56
1.439486381e-61
1.291923509e-66
1.597502777e-71
0.504113321
0.4908908761
0.4890010604
0.4792210392
0.0004805649539
5.783010775e-07
6.915495549e-10
6.103420682e-13
4.856457158e-16
3.212951472e-19
1.57413301e-22
5.704269879e-26
1.389026099e-29
1.32019585e-33
3.3730501e-38
6.676158075e-43
1.297399981e-47
2.438412344e-52
3.956573366e-57
4.879999367e-62
4.314566824e-67
4.831685476e-72
0.5024333676
0.480504104
0.4777844531
0.468228764
0.0003483950976
4.229699952e-07
4.988891059e-10
4.516394741e-13
6.24803974e-16
7.897086079e-19
4.434364342e-22
1.959119244e-25
6.179832474e-29
8.986554873e-33
1.894435637e-37
3.797083527e-42
7.444263752e-47
1.424560334e-51
2.377203724e-56
2.994817516e-61
2.62025157e-66
2.500025308e-71
0.4793651754
0.461637533
0.4594769135
0.4502873752
0.0008546060172
2.225211279e-06
2.586965089e-09
2.380782312e-12
3.401364226e-15
4.475072782e-18
3.034269431e-21
1.664400333e-24
5.000298048e-28
6.319222897e-32
7.964866782e-37
1.602286111e-41
3.136660127e-46
6.060214468e-51
1.03776026e-55
1.338801959e-60
1.165669658e-65
9.17879401e-71
0.4621143551
0.4450684915
0.4424046154
0.4335565231
0.0004131752847
4.834232272e-07
5.688830471e-10
5.455590706e-13
7.329828627e-16
8.724539721e-19
6.643156017e-22
4.018339643e-25
9.415806512e-29
7.868544271e-33
2.188895462e-37
4.370749541e-42
8.473630346e-47
1.63955587e-51
2.859617937e-56
3.765678421e-61
3.281516113e-66
2.857318984e-71
0.4466504904
0.4259868964
0.4233518164
0.4148847801
0.0004451221562
6.232410537e-07
8.237254984e-10
1.102839786e-12
1.77142084e-15
1.895137257e-18
1.454114759e-21
1.127352732e-24
4.675856928e-28
4.27557257e-32
1.011879188e-36
1.98594757e-41
3.803758769e-46
7.335746306e-51
1.289620577e-55
1.720352104e-60
1.500122953e-65
1.159420275e-70
0.4086323899
0.4063977886
0.4051650136
0.3970617134
0.0005143286773
9.84183404e-07
1.487589314e-09
2.422478714e-12
4.447306351e-15
4.7324097e-18
3.599952874e-21
2.403280891e-24
8.611342188e-28
1.020069584e-31
2.561829376e-36
4.920575055e-41
9.378725914e-46
1.806777973e-50
3.169515632e-55
4.239307944e-60
3.706755076e-65
2.357029173e-70
0.4094302394
0.3979415304
0.3942852593
0.3863995541
0.0004413212112
7.362817353e-07
1.139738965e-09
1.670008929e-12
2.512276e-15
3.309892409e-18
3.490205476e-21
1.820945484e-24
5.054146995e-28
7.4170029e-32
1.439500127e-36
2.715503406e-41
5.214338215e-46
1.009113196e-50
1.748978414e-55
2.312606729e-60
2.027298317e-65
1.256918024e-70
0.3992346856
0.3754192406
0.3716912109
0.3642573866
0.0004354872097
9.663311311e-07
1.922810496e-09
2.56499843e-12
2.786266693e-15
2.489299929e-18
1.918175116e-21
8.855875512e-25
1.680219738e-28
1.160210758e-32
3.183176838e-37
6.015561106e-42
1.180706993e-46
2.315343778e-51
3.950828647e-56
5.104746207e-61
4.466711599e-66
3.137183473e-71
0.3532978771
0.3469792749
0.344729576
0.3378349845
0.0003834035305
7.194108389e-07
1.201311787e-09
1.542752115e-12
1.261706091e-15
1.023304682e-18
8.44612376e-22
3.54878783e-25
7.858189934e-29
6.413823356e-33
8.21199392e-38
1.575598093e-42
3.191601753e-47
6.392532572e-52
1.082548547e-56
1.367959233e-61
1.186992737e-66
8.458658754e-72
0.3327199882
0.3288762436
0.3263538269
0.3198267504
0.0003615636727
5.570339487e-07
9.248814344e-10
1.536507307e-12
1.049002026e-15
4.720311674e-19
2.210866092e-22
7.767471748e-26
1.995794944e-29
2.585943435e-33
6.056604792e-38
1.169331104e-42
2.455109504e-47
5.063566105e-52
8.665306556e-57
1.086746628e-61
9.302943802e-67
6.555769611e-72
0.3228931603
0.3153298764
0.3101352943
0.3039325884
0.000142124956
2.280374014e-07
5.777668857e-10
7.079954535e-13
4.866734568e-16
2.975859573e-19
1.567511413e-22
4.296379785e-26
1.130627518e-29
1.444612345e-33
1.816258262e-38
3.26396043e-43
7.102478706e-48
1.517353222e-52
2.662062748e-57
3.36265461e-62
2.829102957e-67
1.79325953e-72
0.3070320997
0.2905726784
0.2822119679
0.2765677285
0.0001713092915
1.344068854e-07
1.969311377e-10
2.869704264e-13
1.963296568e-16
1.882170904e-19
1.615340337e-22
6.023076626e-26
1.335082177e-29
1.170132613e-33
2.112337462e-38
4.063992595e-43
9.286065253e-48
2.058035684e-52
3.694880286e-57
4.680114256e-62
3.84034118e-67
2.015174393e-72
0.2972174901
0.2660649272
0.2551745693
0.2500710779
0.0001184921651
4.582606247e-08
7.19705734e-12
2.643709987e-15
1.876332132e-18
1.322884611e-21
1.032123025e-24
2.832868895e-28
2.167992937e-32
5.95209784e-37
6.312367307e-42
1.280968071e-46
3.250392892e-51
7.800485396e-56
1.462564718e-60
1.864396588e-65
1.492353416e-70
7.643695814e-76
0.2895932557
0.238079255
0.2254120937
0.2209038519
0.0001695244797
6.960193293e-08
1.96645997e-11
7.094461818e-15
4.116112606e-18
2.503515766e-21
1.00960413e-24
2.816626136e-28
5.123916392e-32
3.002346383e-36
5.287209737e-41
1.157908989e-45
2.891105702e-50
6.667621941e-55
1.187504251e-59
1.42103422e-64
1.055223695e-69
5.424880373e-75
0.230124016
0.2051462907
0.1940117826
0.190131547
4.443812286e-05
3.244065281e-08
2.499300487e-11
1.857263594e-14
1.453704938e-17
4.245877722e-21
6.504720366e-25
1.265436082e-28
1.581574159e-32
1.29401976e-36
3.014375207e-41
7.072217849e-46
1.778773908e-50
3.96619123e-55
6.625240826e-60
7.290729436e-65
4.935314807e-70
2.452655373e-75
0.1891026467
0.1731760966
0.1640432237
0.1607623592
3.878486862e-05
2.548917197e-08
1.759528277e-11
1.220504014e-14
7.840871807e-18
2.57373445e-21
8.602051512e-25
3.496361032e-28
5.904605466e-32
1.55825203e-36
5.310572346e-41
1.531004021e-45
3.795971586e-50
7.581861002e-55
1.08842207e-59
1.019516815e-64
5.961009733e-70
2.659936334e-75
0.1629147915
0.1526429068
0.1461665215
0.1432431911
5.591882179e-05
3.365745853e-08
2.891744827e-11
2.86424709e-14
1.527377769e-17
4.154461118e-21
5.340603052e-25
2.414355561e-29
6.750477827e-34
1.388406443e-38
1.85753556e-43
3.798424525e-48
6.885386621e-53
9.924483895e-58
1.035711372e-62
7.321145375e-68
3.440079986e-73
1.350336246e-78
0.1358275067
0.1252381952
0.1241076315
0.1216254789
5.468668224e-05
3.09646926e-08
1.830131352e-11
9.417297386e-15
2.330653615e-18
1.093416403e-21
5.469901333e-25
1.010542425e-28
7.220090302e-33
9.200884656e-38
1.153652671e-42
1.173157266e-47
9.744980185e-53
6.72252567e-58
3.82331639e-63
1.716152784e-68
5.890548383e-74
1.951352666e-79
0.1203804815
0.1245654131
0.1216832162
8.791805269e-05