/*--------------------------------*- C++ -*----------------------------------*\
  =========                 |
  \\      /  F ield         | OpenFOAM: The Open Source CFD Toolbox
   \\    /   O peration     | Website:  https://openfoam.org
    \\  /    A nd           | Version:  9
     \\/     M anipulation  |
\*---------------------------------------------------------------------------*/
FoamFile
{
    format      ascii;
    class       volScalarField;
    location    "10";
    object      ZrF4.gas;
}
// * * * * * * * * * * * * * * * * * * * * * * * * * * * * * * * * * * * * * //

dimensions      [0 0 0 0 0 0 0];

internalField   nonuniform List<scalar> 
2215
(
0.001443734586
0.001436560926
0.001418950399
0.001386960766
0.001337655262
0.001269560057
0.001182470525
0.001077108224
0.0009533861786
0.0008091345314
0.0006383795271
0.0004293905165
0.000155567574
6.142722373e-05
2.556036727e-05
1.116191192e-05
5.25067022e-06
2.808914166e-06
1.849315004e-06
1.59702598e-06
1.746404349e-06
2.077451652e-06
0.001447702053
0.001441257384
0.001424056228
0.001391536368
0.001340725689
0.001270487958
0.001181593149
0.001075499024
0.0009532719826
0.000814297319
0.0006556070897
0.0004759328772
0.0002859998453
0.0001577748261
8.295898293e-05
4.285735176e-05
2.258960217e-05
1.281577165e-05
8.41721268e-06
6.823069967e-06
6.740813232e-06
7.277665069e-06
0.001453584944
0.001447431293
0.00142996597
0.001396276097
0.001343510732
0.001270830211
0.001179600368
0.00107220483
0.0009509745575
0.0008167512916
0.0006702222734
0.0005120288592
0.0003537650378
0.0002242097555
0.0001332627251
7.635408064e-05
4.371558548e-05
2.627721232e-05
1.77000141e-05
1.415925804e-05
1.342460735e-05
1.391284889e-05
0.001460331872
0.001454185465
0.00143617903
0.001401131381
0.001346242811
0.001270911062
0.001176932614
0.001067637993
0.0009465623312
0.0008160780926
0.0006776086123
0.0005340592104
0.0003928147975
0.0002691145302
0.0001734930799
0.0001074306597
6.591544848e-05
4.187988211e-05
2.918330745e-05
2.347260663e-05
2.185498455e-05
2.215477909e-05
0.001467506732
0.001461262739
0.001442625425
0.001406140147
0.001349026204
0.001270885726
0.001173881013
0.001062218932
0.0009404409676
0.000812082045
0.0006794867684
0.0005457359575
0.0004159348219
0.0002993675173
0.0002044183317
0.0001344383995
8.743348937e-05
5.846233313e-05
4.225704484e-05
3.45089674e-05
3.197700706e-05
3.204093428e-05
0.001474962124
0.001468603169
0.001449318822
0.001411370054
0.001351994485
0.001270958191
0.001170818722
0.001056525437
0.0009334453177
0.0008060810273
0.0006775645539
0.0005506437223
0.0004293870618
0.0003197075258
0.0002278191719
0.0001571887594
0.0001074139499
7.523003646e-05
5.64024999e-05
4.700131865e-05
4.368834518e-05
4.354760591e-05
0.0014826707
0.00147621233
0.001456289911
0.001416885276
0.001355280941
0.001271413366
0.001168166828
0.001051186427
0.0009264387889
0.0007992586343
0.0006733931276
0.0005515917528
0.000436939615
0.0003334667702
0.0002455878319
0.0001762267415
0.0001256652356
9.178493324e-05
7.129272363e-05
6.07577876e-05
5.691220706e-05
5.666009158e-05
0.00149064393
0.001484105154
0.00146355667
0.00142273893
0.001359026108
0.001272570032
0.001166716853
0.001046869896
0.0009203033772
0.0007928035505
0.0006686240286
0.0005506170445
0.0004411907145
0.0003431421307
0.0002594960398
0.000192448775
0.0001424500983
0.0001080899645
8.682511905e-05
7.572284459e-05
7.166132893e-05
7.143673943e-05
0.001498892895
0.001492281449
0.00147111356
0.001428965381
0.001363337451
0.001274578322
0.001166363786
0.001044695003
0.0009163737474
0.0007881710658
0.0006649175463
0.0005495837967
0.0004442246297
0.0003507836846
0.0002711979426
0.0002069371739
0.0001583492504
0.0001244161028
0.0001031410156
9.202308321e-05
8.809207036e-05
8.806511017e-05
0.00150741012
0.001500717904
0.001478937431
0.001435597648
0.00136836457
0.001277769588
0.001167629634
0.001044313075
0.000915017375
0.0007863652956
0.0006635886914
0.0005501066603
0.0004478980152
0.0003582531001
0.0002823166331
0.0002209244774
0.0001742036772
0.0001413178252
0.0001206395275
0.000110005045
0.0001065493611
0.0001069096712
0.001516163201
0.001509369153
0.001486996013
0.001442681928
0.001374309983
0.001282613478
0.001171478347
0.001047200962
0.0009171411979
0.0007882612968
0.0006660248984
0.000553995102
0.0004541328267
0.0003674543858
0.000294578735
0.0002358423214
0.0001911244092
0.0001596418035
0.0001400022716
0.0001302666281
0.0001276083961
0.0001285508904
0.001525097073
0.001518177679
0.001495269053
0.001450299715
0.001381412896
0.001289553791
0.001178590223
0.001054604461
0.000924803516
0.0007961992774
0.0006744681307
0.0005634171989
0.0004651350761
0.0003805492273
0.0003099829059
0.0002534306383
0.0002105584309
0.0001805705794
0.0001622329714
0.0001536912043
0.0001521019584
0.0001538105159
0.001534141144
0.001527086855
0.001503771989
0.001458603141
0.001390017996
0.001299169922
0.001189805851
0.001067628353
0.0009394447752
0.0008120579181
0.0006912033544
0.0005809269661
0.0004835666931
0.0004001671615
0.000330994724
0.0002758918759
0.0002344015217
0.0002057109003
0.0001886911883
0.0001814714746
0.0001811344289
0.0001837593538
0.001543218205
0.001536053329
0.001512573981
0.001467833414
0.001400592799
0.001312200251
0.001206183206
0.001087700642
0.000962917945
0.0008381585171
0.0007190015937
0.0006096427497
0.0005127308754
0.000429614654
0.0003607530101
0.0003060672094
0.0002651291543
0.0002371706445
0.0002211549032
0.0002151214484
0.0002160770934
0.0002197017841
0.001552253651
0.00154505271
0.001521805303
0.001478319782
0.001413720499
0.001329529527
0.001228963823
0.001116481062
0.000997374867
0.0008772062294
0.0007611280639
0.0006533081279
0.0005566783467
0.0004730229441
0.0004032363042
0.0003475911281
0.000305914929
0.0002776280063
0.0002618290543
0.00025649557
0.000258533269
0.0002631294944
0.001561185733
0.001554078087
0.001531668925
0.001490456045
0.001430055812
0.001352119022
0.001259461015
0.001155703424
0.001045068269
0.0009320739115
0.0008211340835
0.0007161179941
0.0006200908194
0.0005353006627
0.0004632736186
0.0004049318773
0.0003606697327
0.0003303495208
0.0003133448624
0.0003077207084
0.0003102681225
0.0003156394512
0.001569970786
0.001563197244
0.001542333218
0.001504623459
0.001450212981
0.001380823989
0.001298790618
0.001206808202
0.001107881676
0.001005239751
0.0009022318059
0.0008020810011
0.000707692904
0.0006216483456
0.0005461847919
0.0004831470395
0.0004338783493
0.000399070546
0.0003786619563
0.0003710842652
0.0003730944061
0.0003788124054
0.001578589302
0.001572459982
0.001553952458
0.001521107666
0.001474573835
0.001416068082
0.001347385542
0.001270264594
0.00118643712
0.001097683654
0.001006009618
0.0009136261123
0.0008228615079
0.0007362945174
0.0006567373508
0.0005870964527
0.0005300472795
0.0004876204725
0.0004608095347
0.0004488467152
0.000448707002
0.0004540554792
0.001587013935
0.001581881048
0.00156658917
0.001539952957
0.001503015675
0.001457392846
0.001404316303
0.001344606254
0.001278798444
0.001207241992
0.001130448498
0.001049348096
0.0009652459302
0.0008801944653
0.0007971288136
0.0007198421282
0.0006525515508
0.0005991523512
0.0005623929374
0.0005429350261
0.0005384537462
0.0005424056405
0.001595194634
0.001591412813
0.001580124953
0.00156078512
0.001534611446
0.001502997149
0.001466627426
0.001425515408
0.001379236201
0.001326990308
0.001267879043
0.001201528599
0.001127929537
0.001048033187
0.0009641313697
0.0008802191174
0.0008017954561
0.0007348974726
0.0006848045134
0.0006544748128
0.0006430374374
0.0006442651605
0.001603057342
0.001600923248
0.001594199712
0.001582700578
0.001567489368
0.001549570077
0.00152915373
0.00150569537
0.001478111591
0.001445009758
0.001404541101
0.001355296188
0.001295997644
0.001226154938
0.001146594834
0.001060300485
0.0009730405596
0.0008925840948
0.0008271770581
0.0007831193326
0.0007621107028
0.0007590895987
0.001610502101
0.001610186904
0.001608205932
0.001604323663
0.001599050872
0.001592816617
0.001585426153
0.001576226924
0.001563892432
0.001547100281
0.001523672167
0.001491733569
0.001449144491
0.001394113948
0.001325690504
0.001244509065
0.001154934355
0.00106494887
0.0009852795013
0.0009263305204
0.000893808832
0.0008850423546
0.001617413315
0.001618909118
0.001621374507
0.001624068542
0.001626599854
0.001628710932
0.001629698144
0.001629759219
0.001627368996
0.001622119321
0.001611830032
0.001594934691
0.001568972253
0.001531262242
0.001479879068
0.001412418457
0.001330327664
0.001239369121
0.001150779903
0.001078733915
0.001034286935
0.001018664631
0.001623683108
0.001626791224
0.00163297044
0.001640580575
0.001648096137
0.001654749251
0.001660154924
0.00166367366
0.001665062162
0.001665088638
0.001662272186
0.001655886371
0.001644377919
0.001625054708
0.001593284463
0.001545502185
0.001480446037
0.00139960672
0.001311570524
0.001231953078
0.001177396494
0.001154713494
0.001629239164
0.001633617572
0.001642541069
0.001653299103
0.001663269403
0.001671332116
0.001677327728
0.001681410918
0.001683722609
0.001684648101
0.001684685936
0.001683031392
0.001679080733
0.001671468077
0.001657615095
0.001633234078
0.00159150871
0.001530043177
0.001453678902
0.001375295814
0.001314984278
0.001286408878
0.001634058238
0.001639300744
0.001649987606
0.0016624285
0.001673146567
0.001680952992
0.001686139101
0.001689374867
0.001691289261
0.001692341271
0.001692769547
0.001692796979
0.001691950659
0.001689825859
0.001685140999
0.001675558957
0.001656515457
0.001621306558
0.001564999512
0.00149762165
0.001438080433
0.001406258279
0.001638158198
0.001643861282
0.001655461742
0.001668561682
0.001679123463
0.001686056856
0.001690116334
0.001692363158
0.00169358415
0.001694309983
0.001694838165
0.001695197927
0.00169533887
0.001695237311
0.00169429364
0.001691688162
0.001685095768
0.001670139323
0.001639784105
0.00159047448
0.001538845704
0.001507487083
0.001641586967
0.001647389017
0.001659227615
0.001672346537
0.001682408997
0.001688441898
0.00169149211
0.001692955717
0.00169371358
0.001694183575
0.001694594721
0.001695069837
0.001695589844
0.001696015422
0.001696181336
0.001696050957
0.001694756181
0.001690256328
0.001677969282
0.001651288241
0.001612796423
0.001585673897
0.001644413919
0.001650022438
0.00166160848
0.001674403828
0.001683949024
0.001689141755
0.001691487253
0.001692421858
0.001692633356
0.001692631508
0.001692696626
0.001692978133
0.00169358035
0.001694505061
0.001695620682
0.001696452846
0.001696780089
0.001696386601
0.00169322564
0.001682521123
0.00166032056
0.001640006895
0.001646715943
0.001651900462
0.001662830596
0.00167492741
0.001684062279
0.001688987345
0.001690949569
0.00169134777
0.001691211041
0.001690817693
0.001690574858
0.001690526184
0.001690840522
0.00169158407
0.001692773018
0.001694403197
0.001696256002
0.001697325392
0.001697555266
0.001695148773
0.001685803353
0.001673351953
0.001648591315
0.001653118499
0.001663055762
0.001674613222
0.001683598935
0.001688369446
0.001690028497
0.001690281045
0.001689903952
0.001689269146
0.001688727921
0.001688470997
0.00168847777
0.001688935078
0.001689835562
0.001691206751
0.001693211562
0.001695899953
0.001698019064
0.001698737764
0.001696720246
0.001691007459
0.001650113097
0.00165390281
0.00166279673
0.001673685069
0.001682406276
0.001687226935
0.001689029554
0.001689294412
0.001688835181
0.001688073991
0.001687328485
0.0016868122
0.001686606018
0.001686771545
0.001687406749
0.001688469975
0.001690073894
0.001692598315
0.00169613914
0.001699101436
0.001700120933
0.001698838377
0.001651348447
0.001654397313
0.001662081219
0.001671953654
0.00168043045
0.001685606794
0.001687854718
0.001688342962
0.001687948334
0.001687164975
0.001686300618
0.00168554699
0.001685111446
0.001685014374
0.001685379156
0.001686161488
0.001687385586
0.001689492706
0.001692938643
0.001697426452
0.001700574338
0.001701473437
0.001652395656
0.001654694496
0.001660919764
0.001669723293
0.00167788881
0.00168345685
0.001686297297
0.001687225865
0.001687075373
0.001686396808
0.001685492932
0.001684593841
0.001683898701
0.001683585292
0.001683694273
0.001684208226
0.001685046949
0.001686657598
0.001689868623
0.001694640096
0.001699535086
0.001701800946
0.001653457862
0.001654966479
0.001659619324
0.00166715018
0.00167480532
0.001680674536
0.001684174545
0.001685722901
0.001685971243
0.001685560546
0.001684726852
0.001683766053
0.001682896665
0.001682368294
0.001682281548
0.001682571705
0.00168305083
0.001684098489
0.001686868306
0.001691775134
0.001697592125
0.001700965024
0.001654907813
0.00165553927
0.001658463676
0.001664430419
0.001671281752
0.001677217278
0.001681319626
0.001683590901
0.001684439552
0.001684354722
0.001683802612
0.001682882604
0.001681947415
0.001681272946
0.001681048347
0.001681175409
0.00168133781
0.001681827635
0.00168403281
0.001688894096
0.001695349718
0.001699538476
0.001657171637
0.001656845677
0.001658302831
0.001661999749
0.00166757393
0.001673164307
0.001677652488
0.001680638326
0.001682215947
0.001682669251
0.001682443591
0.001681774022
0.001680890597
0.001680194371
0.001679916361
0.001679946993
0.001679832332
0.001679783278
0.001681368237
0.001686034285
0.001693037422
0.001697946
0.001660290088
0.001659249799
0.001659087882
0.00166073826
0.001664339504
0.001668939281
0.001673335294
0.001676827953
0.00167915068
0.001680328226
0.001680562833
0.001680272367
0.001679618352
0.001679035113
0.001678820627
0.001678817812
0.001678447152
0.001677881264
0.001678878254
0.001683250622
0.001690752074
0.001696396983
0.001662976058
0.001662046579
0.001660988944
0.001661167182
0.001662566238
0.001665503852
0.001669098237
0.001672566463
0.001675398049
0.001677284988
0.001678196133
0.001678328615
0.001678087034
0.001677761492
0.001677721011
0.001677725435
0.001677088744
0.001675995898
0.001676524413
0.001680555063
0.001688580979
0.001694993324
0.001662012712
0.001662044907
0.001661581975
0.00166143567
0.001661970687
0.00166352073
0.001666009857
0.001668863422
0.001671666394
0.001673965793
0.001675461595
0.001676167218
0.001676344587
0.001676412495
0.001676647429
0.001676600828
0.001675593366
0.001673979893
0.001674260748
0.001677982899
0.001686615579
0.00169376872
0.001654246297
0.001655906209
0.001656776575
0.001657895157
0.001659099398
0.001660758185
0.00166322951
0.001665876143
0.001668505864
0.001670918933
0.001672786661
0.001673973897
0.00167462401
0.001675124709
0.00167562709
0.001675361685
0.001673753811
0.001671674678
0.001671925726
0.001675684372
0.001685146698
0.00169294397
0.001641833363
0.001644710455
0.001646153718
0.001647877628
0.001650363248
0.001653837318
0.001657951682
0.001662076701
0.001665476837
0.001668253972
0.001670449058
0.001672026832
0.001673118243
0.001674048325
0.001674621461
0.001673862666
0.001671297286
0.001669024227
0.001669491128
0.001673865698
0.00168450258
0.00169264411
0.001636599764
0.00164071352
0.001643268765
0.001643906927
0.001643394506
0.001644359646
0.001648511985
0.001655477923
0.001661429227
0.001665582288
0.001668460076
0.001670479436
0.001671998082
0.001673251405
0.001673433713
0.001671749088
0.001668009372
0.001666054031
0.001667026338
0.001673045732
0.001684425811
0.001692688351
0.001644110592
0.001656499494
0.001661419851
0.001660102662
0.001654680754
0.001645489916
0.001643509114
0.001646590898
0.00165456163
0.001661714031
0.00166635321
0.001669258527
0.001671292161
0.001672515852
0.001671666378
0.001668285642
0.001664003915
0.001662935973
0.001665028956
0.001673053915
0.00168545512
0.001693546125
0.001671973867
0.001687148979
0.00168862997
0.00168547416
0.001679039663
0.001664809726
0.00164923774
0.001644198173
0.001647127154
0.001655611735
0.001663068841
0.001667697374
0.001670448055
0.001671157424
0.001668762203
0.001663347324
0.00165969504
0.001659839686
0.001664217322
0.001675789833
0.001688257212
0.001695316127
0.001696614633
0.001701077007
0.001701816437
0.001699823558
0.001694291827
0.001681751395
0.001663618948
0.001647322416
0.001644054285
0.001648470244
0.001657904306
0.00166483256
0.001668770803
0.001668369567
0.001663904358
0.001657619742
0.001655597572
0.001657451275
0.001665764832
0.00168082712
0.001692129592
0.001697561287
0.001704116796
0.00170511279
0.001705942451
0.001705799133
0.001702846589
0.001693761606
0.001672591576
0.001651977259
0.001642452715
0.001643785621
0.001651569929
0.001660587788
0.001665766935
0.00166388484
0.001656675797
0.001651487202
0.001651599821
0.001656641145
0.001671247979
0.001686722373
0.001695629214
0.001699535031
0.001704145048
0.001704164426
0.001705286255
0.001706802632
0.001705540393
0.001694867773
0.001665842676
0.001647512591
0.001638683895
0.001639003007
0.001644807128
0.001655221685
0.001660917737
0.001656636548
0.001647115012
0.001645804475
0.001648903694
0.001659755112
0.001676250879
0.001689475093
0.001696901115
0.001700352295
0.001697154271
0.001697411382
0.001698961379
0.001703060895
0.001704572723
0.001696642466
0.001648958414
0.001633995167
0.00163006212
0.001631453309
0.0016370539
0.00164832412
0.001652304135
0.001644387216
0.001638832555
0.001640717958
0.001648345001
0.001661779315
0.001676316052
0.001687419981
0.001695361987
0.001699709147
0.001688403881
0.00168908203
0.001691571865
0.00169492598
0.001697688302
0.001694647675
0.001592383614
0.001623101694
0.001620991391
0.001622777013
0.001627775664
0.001639099877
0.001639970032
0.00163403743
0.001633426886
0.001637098175
0.001651577227
0.001665610931
0.001674507236
0.001679697543
0.001690301686
0.001696367347
0.001681473205
0.001682762227
0.001685794667
0.001688164582
0.001689790521
0.001679806829
0.00159267405
0.001613861475
0.00161242914
0.00161461367
0.00161892339
0.001627951398
0.001628144545
0.00162955913
0.001629860617
0.001601932858
0.001618545681
0.001632298713
0.001641017091
0.001646103592
0.001656495653
0.00166244
0.001675837094
0.001677737111
0.001680155614
0.00168222164
0.00168176776
0.00162710223
0.001572157126
0.001578208482
0.001610386092
0.001609693498
0.001612600787
0.001618821492
0.00162435478
0.001628247748
0.001628554641
0.001595949714
0.00155335406
0.001522521247
0.001586170238
0.001606896072
0.001580741308
1.708671682e-07
0.001671685555
0.001673072005
0.001674833742
0.001676044488
0.001674539979
0.001624659057
0.001574116422
0.001542441949
0.001577746259
0.00161181771
0.001613308935
0.00161872231
0.001627383938
0.001628021439
0.001595461013
0.001535837583
0.001496139239
0.001463828472
1.525435052e-05
3.287389055e-07
1.748588036e-08
1.859702641e-11
0.00166862188
0.00166977596
0.001670877288
0.001671288807
0.001662003059
0.001613502593
0.001564788219
0.001518771698
0.001547884499
0.001583303695
0.00162009134
0.001625147231
0.001630255203
0.001629684442
0.001597083
0.001539216386
0.001502303224
0.001468005037
1.251876456e-05
8.526942249e-10
7.835712904e-13
2.09128739e-15
0.001666555266
0.001667188156
0.001667681166
0.001667162782
0.00162332665
0.001579921609
0.00153432858
0.001483504842
0.001493115197
0.001523111654
0.001589615249
0.001624758429
0.001629328834
0.001628737544
0.001588628062
0.00154692058
0.001511870748
0.001429405023
3.558080219e-06
2.217946638e-10
1.628247752e-14
2.115484909e-18
0.001665710466
0.00166523511
0.001665166157
0.001663617368
0.00162514568
0.001583915181
0.001538769594
0.001495204087
0.001463167885
0.001492755213
0.001555209518
0.001591441065
0.001596500161
0.001595974654
0.001555750603
0.001509561615
0.001473673517
0.0009269426104
4.542761642e-07
2.791805292e-11
2.115002171e-15
2.482378188e-19
0.001665265531
0.001663767536
0.001662865227
0.001628149069
0.001593536756
0.001554672502
0.001510487092
0.001462189096
0.001428454442
0.001462753517
0.001522693737
0.001559606762
0.001564487924
0.001562953273
0.00152442969
0.001478146396
0.0009575098743
9.739784375e-06
7.312850684e-10
4.7987356e-14
3.707736694e-18
3.212539579e-22
0.001665615124
0.001662709098
0.001661809914
0.001626488577
0.001593541734
0.001531674929
0.001474389307
0.001256361493
0.001164298409
0.001324921658
0.001385462028
0.001399345513
0.001519822551
0.001496586662
0.0009357974203
0.0002085379002
9.035280433e-06
2.532219629e-09
3.984538362e-13
3.136797913e-17
2.600314127e-21
1.888063115e-25
0.00166738793
0.001661987325
0.001660964817
0.001627320105
0.001594764696
0.001559309156
5.464623673e-06
3.614422543e-05
0.0007029702025
0.001178380032
0.001295087865
0.001236450805
0.0009961240547
0.0001496328734
1.126476127e-05
2.495610718e-07
5.889591091e-10
6.636926763e-13
1.136971263e-16
1.186260519e-20
1.142309603e-24
6.193732615e-29
0.001670645802
0.001661529547
0.001660301286
0.001627005988
0.001594460928
0.00152774192
1.917781178e-06
2.092379251e-07
4.54480189e-05
0.0003762004622
0.0006118906742
0.0006079591986
2.658503357e-05
1.25705937e-06
6.754441626e-08
5.936812527e-10
4.948186403e-13
1.894841041e-16
3.119844327e-20
4.015644912e-24
4.289768956e-28
1.815870982e-32
0.00167629012
0.001661100482
0.001659551286
0.001626347802
0.001593814369
0.0001151454699
8.456176662e-08
0
0
3.195874537e-06
2.110754599e-05
4.130371501e-06
5.801073353e-07
2.627967273e-08
4.686474398e-10
1.943282113e-12
1.276910459e-15
2.472716829e-19
2.837694652e-23
3.153557014e-27
2.711743008e-31
8.504778716e-36
0.001685164997
0.001660880449
0.001658737822
0.00162556274
0.001572701003
7.357861182e-05
0
1.071621473e-12
0
2.968194778e-08
3.490314273e-07
2.655276018e-08
6.582614663e-09
3.355025778e-10
3.019461699e-12
6.314677889e-15
3.323994101e-18
6.226239857e-22
6.711712387e-26
6.428498644e-30
3.674275475e-34
5.31945368e-39
0.001697632692
0.001658329318
0.001654947386
0.001621848437
0.001555373978
2.059227477e-05
1.447026727e-09
0
2.867202746e-12
2.560676573e-10
3.519511016e-09
2.462120017e-10
6.614267071e-11
2.733776831e-12
1.402362416e-14
1.820538818e-17
8.152243498e-21
1.371980202e-24
1.464384173e-28
1.184642769e-32
5.09194975e-37
5.896076317e-42
0.001711249919
0.001649745161
0.00164389708
0.001611019138
0.001411980304
9.667568556e-06
1.868006424e-09
0
2.083706269e-14
2.42737898e-12
3.207721826e-11
2.348235267e-12
6.00280153e-13
1.702189036e-14
5.323762349e-17
4.949547633e-20
1.891859792e-23
2.685501917e-27
2.622339213e-31
1.520509825e-35
2.577018069e-40
4.6454294e-46
0.001724901524
0.001640140341
0.001628634711
0.001596062016
0.001301308408
1.582001212e-06
0
5.543288345e-13
0
2.390400054e-14
2.910370792e-13
2.251954682e-14
5.810980349e-15
9.750696819e-17
1.908290119e-19
1.280344097e-22
3.792288687e-26
4.404519507e-30
3.337823864e-34
1.28360175e-38
1.488861601e-43
1.11477629e-49
0.001728516
0.001599229105
0.001586478872
0.001554749294
0.0005457966496
3.20692507e-07
2.170039198e-11
0
5.02989605e-18
2.924919091e-16
2.854978966e-15
2.04820913e-16
1.805723819e-17
3.144821709e-19
4.576884756e-22
2.258207284e-25
4.766373967e-29
4.338089773e-33
2.063008238e-37
2.579570229e-42
1.66862571e-48
1.995531162e-54
0.001692809529
0.001557797648
0.001544573743
0.001513682269
0.0003399646627
1.267047941e-07
0
2.868743026e-15
5.762931214e-19
1.263819621e-18
8.39639211e-18
1.024140758e-18
1.614483621e-20
6.390937485e-22
6.901239078e-25
2.432956298e-28
3.500554459e-32
2.217434803e-36
6.17458682e-41
5.031621655e-46
3.133761738e-51
3.292080965e-56
0.001680150541
0.001521992015
0.001507281955
0.001477136316
4.644127616e-05
2.819086396e-09
3.322742552e-14
7.020933553e-18
5.890873779e-21
8.656813962e-22
1.012272928e-20
3.552745463e-21
2.919051406e-23
8.157912328e-25
6.555828112e-28
1.624918717e-31
1.502374506e-35
6.078227973e-40
8.746040535e-45
5.678386614e-50
7.010831949e-55
1.137131857e-59
0.00165875863
0.00147675908
0.001460299039
0.001431093058
1.898368591e-06
6.135668092e-10
2.62441403e-13
1.123233636e-16
7.863264479e-20
5.763395592e-23
2.103091468e-23
8.554518383e-24
4.755282428e-26
6.555466352e-28
3.799006835e-31
6.306166952e-35
3.385943671e-39
4.851795988e-44
3.429236384e-49
4.541220587e-54
6.007880488e-59
8.217119895e-64
0.001685002387
0.001442331723
0.001423024969
0.001394564469
8.938450678e-07
5.538257431e-10
3.701946236e-13
2.613936454e-16
2.207870135e-19
1.851867531e-22
1.915833469e-25
1.350489142e-26
5.1779356e-29
3.164261049e-31
1.220447878e-34
1.195044301e-38
2.796304621e-43
2.22788785e-48
2.721585403e-53
3.598409714e-58
4.727740784e-63
8.106203701e-68
0.001612233303
0.001376659899
0.001359628148
0.001332435585
8.609804592e-07
7.469447785e-10
6.245718203e-13
5.157273954e-16
4.439699967e-19
3.585362787e-22
2.568487587e-25
1.606120895e-28
9.183550671e-32
9.836851713e-35
2.093691211e-38
1.185796443e-42
2.601277289e-47
4.001393795e-52
5.596361105e-57
6.811787054e-62
8.090364804e-67
1.404028288e-71
0.001536380321
0.001301946329
0.001284347689
0.001258660735
1.61112829e-06
1.770917287e-09
1.662078727e-12
1.415318722e-15
1.151385334e-18
8.238348223e-22
4.843182322e-25
2.120245693e-28
6.261189731e-32
1.14506569e-35
9.015140294e-40
8.684617506e-45
6.621330341e-50
1.000124798e-54
1.359703305e-59
1.574969626e-64
1.713582465e-69
2.79381448e-74
0.001428695149
0.001221666365
0.001205232751
0.001181128096
1.483133433e-06
1.895416504e-09
1.94318675e-12
1.673009895e-15
1.298031051e-18
8.428237522e-22
4.255681763e-25
1.50505502e-28
3.283117328e-32
3.410859256e-36
1.193860974e-40
2.377028195e-45
3.881715081e-50
6.042929607e-55
8.391356903e-60
9.69296416e-65
9.911864922e-70
1.624071967e-74
0.001342418134
0.00115106127
0.001134786998
0.001112091258
1.321775186e-06
1.808029375e-09
1.997858608e-12
1.743752311e-15
1.332618914e-18
8.322493193e-22
3.930008442e-25
1.263125506e-28
2.522313821e-32
2.790555746e-36
1.025398827e-40
8.495256767e-46
1.43608757e-50
2.314278638e-55
3.303845012e-60
3.834361817e-65
3.576783367e-70
5.597133681e-75
0.001244244914
0.001084289614
0.001069463929
0.001048074651
2.019124925e-06
4.328749364e-09
5.055285993e-12
4.698789781e-15
3.606481824e-18
2.252229661e-21
1.119982892e-24
3.716743809e-28
7.224878791e-32
9.157502269e-36
6.062341668e-40
1.074875187e-44
1.936187268e-49
3.226834019e-54
4.735916558e-59
5.597792194e-64
4.917700371e-69
7.173039784e-74
0.001153905553
0.001030416221
0.001018548583
0.0009981776118
1.515697402e-06
2.694469366e-09
3.258929739e-12
3.0007911e-15
2.333884898e-18
1.480406899e-21
7.281877675e-25
2.361638426e-28
4.281136761e-32
2.871943564e-36
3.79929175e-41
6.99060262e-46
1.262765182e-50
2.218859202e-55
3.343990065e-60
3.98609055e-65
3.70199304e-70
5.292693952e-75
0.001104334671
0.001006003291
0.0009903217995
0.0009705153635
1.26633702e-06
1.953120559e-09
2.400359203e-12
2.143019364e-15
1.686667149e-18
1.087243466e-21
5.165417149e-25
1.61966288e-28
3.758268616e-32
4.533420112e-36
6.460927316e-41
1.222705791e-45
2.27349951e-50
4.045065353e-55
6.242372881e-60
7.508067616e-65
6.854323419e-70
9.143411721e-75
0.001126897583
0.0009412307131
0.0009217092924
0.0009032751065
7.949518454e-07
1.060946514e-09
1.295080217e-12
1.153696014e-15
9.150553355e-19
5.981430932e-22
2.879121735e-25
9.514682354e-29
2.336887182e-32
3.659922808e-36
2.054869459e-40
3.986647624e-45
7.603259245e-50
1.393337913e-54
2.201982614e-59
2.675020931e-64
2.400797805e-69
2.968647271e-74
0.001022434551
0.0008554572004
0.0008377298868
0.0008209752891
8.233173194e-07
9.908586414e-10
1.184970004e-12
1.045863908e-15
8.321383512e-19
5.505008607e-22
2.69689286e-25
9.772063495e-29
2.379389594e-32
2.261462963e-36
5.777915641e-41
1.143594752e-45
2.222369642e-50
4.176826796e-55
6.777288065e-60
8.359006805e-65
7.390451092e-70
8.276205819e-75
0.0009105956549
0.0007661189886
0.0007504041133
0.000735396031
5.471142422e-07
6.643088337e-10
7.836065552e-13
7.094028095e-16
9.810937308e-19
1.23985872e-21
6.960427808e-25
3.074600887e-28
9.693041108e-32
1.409528918e-35
2.971378605e-40
5.955603036e-45
1.167601625e-49
2.234350202e-54
3.728504599e-59
4.697179922e-64
4.109688039e-69
3.92111155e-74
0.0008180896858
0.0006865305815
0.0006722361439
0.000658791421
1.25022674e-06
3.255486519e-09
3.784853115e-12
3.483294332e-15
4.976756514e-18
6.547853893e-21
4.439724985e-24
2.435346638e-27
7.316425931e-31
9.246274608e-35
1.165418278e-39
2.344463893e-44
4.589560639e-49
8.867308012e-54
1.518451593e-58
1.958936385e-63
1.705609255e-68
1.343042501e-73
0.000705177395
0.0005963035533
0.0005854125383
0.0005737042875
5.469432434e-07
6.409763303e-10
7.550627494e-13
7.24730383e-16
9.753323435e-19
1.161551448e-21
8.849384461e-25
5.353576804e-28
1.254558206e-31
1.048411015e-35
2.916510886e-40
5.823655037e-45
1.129042537e-49
2.184579899e-54
3.810222987e-59
5.017484793e-64
4.372378693e-69
3.807174215e-74
0.0006021863748
0.0005173573717
0.0005091213514
0.0004989389244
5.355166074e-07
7.501983103e-10
9.918189993e-13
1.328394625e-15
2.134356902e-18
2.283668338e-21
1.752454119e-24
1.358118026e-27
5.632933598e-31
5.150587856e-35
1.218960482e-39
2.392363979e-44
4.582166258e-49
8.836913414e-54
1.553520258e-58
2.072389791e-63
1.807092669e-68
1.396671124e-73
0.0004860649877
0.0004405638414
0.0004357464553
0.0004270315262
5.536635384e-07
1.060325962e-09
1.603440764e-12
2.613506071e-15
4.800610344e-18
5.109562041e-21
3.887925778e-24
2.596281886e-27
9.304109611e-31
1.102147937e-34
2.768000541e-39
5.316640785e-44
1.013376971e-48
1.952259487e-53
3.424761769e-58
4.580739145e-63
4.005313274e-68
2.546885161e-73
0.0004134443818
0.0003926554926
0.0003888522389
0.0003810751942
4.356507803e-07
7.275668281e-10
1.127017816e-12
1.652998832e-15
2.488505689e-18
3.279404255e-21
3.458819103e-24
1.804756254e-27
5.00964422e-31
7.351705716e-35
1.426838116e-39
2.691637354e-44
5.168550051e-49
1.000259314e-53
1.733643674e-58
2.29233987e-63
2.009537232e-68
1.245909105e-73
0.0003984702086
0.0003607043947
0.0003537421038
0.0003466672617
4.142710065e-07
9.187308659e-10
1.827508408e-12
2.437298745e-15
2.647184036e-18
2.363812116e-21
1.821142506e-24
8.407228254e-28
1.59508153e-31
1.101415621e-35
3.021854948e-40
5.710674234e-45
1.120860598e-49
2.197977599e-54
3.750547497e-59
4.845958868e-64
4.240264254e-69
2.978134014e-74
0.0003863372511
0.0003407054597
0.0003323510717
0.0003257040502
3.692899293e-07
6.923584184e-10
1.155356179e-12
1.483065612e-15
1.212614951e-18
9.830706015e-22
8.112327244e-25
3.40816584e-28
7.546369321e-32
6.159298318e-36
7.886050915e-41
1.513048912e-45
3.064873628e-50
6.138658485e-55
1.03954987e-59
1.313618446e-64
1.139837537e-69
8.122600245e-75
0.0003788735435
0.0003152067251
0.0003043836926
0.0002982960187
3.370491188e-07
5.190959178e-10
8.612850055e-13